ITEM: TIMESTEP
0
ITEM: NUMBER OF ATOMS
2
ITEM: BOX BOUNDS pp pp pp
-2.5 2.5
-2.5 2.5
-2.5 2.5
ITEM: ATOMS id type x y z element 
1 1 -8.6359125e-001 1.0558951e+000 2.0259090e+000 A 
2 1 8.6556360e-001 -1.0563466e+000 -2.0286973e+000 A 
ITEM: TIMESTEP
100
ITEM: NUMBER OF ATOMS
2
ITEM: BOX BOUNDS pp pp pp
-2.5 2.5
-2.5 2.5
-2.5 2.5
ITEM: ATOMS id type x y z element 
1 1 -7.8293485e-001 1.0643032e+000 1.8763279e+000 A 
2 1 9.6284099e-001 -1.0809230e+000 -2.1575778e+000 A 
ITEM: TIMESTEP
200
ITEM: NUMBER OF ATOMS
2
ITEM: BOX BOUNDS pp pp pp
-2.5 2.5
-2.5 2.5
-2.5 2.5
ITEM: ATOMS id type x y z element 
1 1 -7.5510527e-001 1.0437421e+000 1.7001543e+000 A 
2 1 1.0247984e+000 -1.0395988e+000 -2.2361606e+000 A 
ITEM: TIMESTEP
300
ITEM: NUMBER OF ATOMS
2
ITEM: BOX BOUNDS pp pp pp
-2.5 2.5
-2.5 2.5
-2.5 2.5
ITEM: ATOMS id type x y z element 
1 1 -7.2770824e-001 1.0374211e+000 1.4719515e+000 A 
2 1 1.0745479e+000 -9.8383520e-001 -2.2534550e+000 A 
ITEM: TIMESTEP
400
ITEM: NUMBER OF ATOMS
2
ITEM: BOX BOUNDS pp pp pp
-2.5 2.5
-2.5 2.5
-2.5 2.5
ITEM: ATOMS id type x y z element 
1 1 -7.2248972e-001 1.1031110e+000 1.2272386e+000 A 
2 1 1.1236968e+000 -9.3639499e-001 -2.3391724e+000 A 
ITEM: TIMESTEP
500
ITEM: NUMBER OF ATOMS
2
ITEM: BOX BOUNDS pp pp pp
-2.5 2.5
-2.5 2.5
-2.5 2.5
ITEM: ATOMS id type x y z element 
1 1 -7.4700736e-001 1.1955057e+000 9.5934011e-001 A 
2 1 1.1203789e+000 -9.1195392e-001 -2.4480487e+000 A 
ITEM: TIMESTEP
600
ITEM: NUMBER OF ATOMS
2
ITEM: BOX BOUNDS pp pp pp
-2.5 2.5
-2.5 2.5
-2.5 2.5
ITEM: ATOMS id type x y z element 
1 1 -7.8611319e-001 1.2756107e+000 6.4662581e-001 A 
2 1 1.1047656e+000 -8.6305597e-001 2.4804534e+000 A 
ITEM: TIMESTEP
700
ITEM: NUMBER OF ATOMS
2
ITEM: BOX BOUNDS pp pp pp
-2.5 2.5
-2.5 2.5
-2.5 2.5
ITEM: ATOMS id type x y z element 
1 1 -8.0843181e-001 1.3627637e+000 3.8307564e-001 A 
2 1 1.1068023e+000 -7.8720544e-001 2.3757902e+000 A 
ITEM: TIMESTEP
800
ITEM: NUMBER OF ATOMS
2
ITEM: BOX BOUNDS pp pp pp
-2.5 2.5
-2.5 2.5
-2.5 2.5
ITEM: ATOMS id type x y z element 
1 1 -8.4982906e-001 1.4184345e+000 1.8876198e-001 A 
2 1 1.1362038e+000 -7.4038530e-001 2.2614933e+000 A 
ITEM: TIMESTEP
900
ITEM: NUMBER OF ATOMS
2
ITEM: BOX BOUNDS pp pp pp
-2.5 2.5
-2.5 2.5
-2.5 2.5
ITEM: ATOMS id type x y z element 
1 1 -8.5628078e-001 1.4822820e+000 -2.0700234e-003 A 
2 1 1.2047385e+000 -7.0253850e-001 2.1579426e+000 A 
ITEM: TIMESTEP
1000
ITEM: NUMBER OF ATOMS
2
ITEM: BOX BOUNDS pp pp pp
-2.5 2.5
-2.5 2.5
-2.5 2.5
ITEM: ATOMS id type x y z element 
1 1 -8.6592347e-001 1.5595572e+000 -1.9985254e-001 A 
2 1 1.2915846e+000 -6.4104702e-001 2.0669521e+000 A 
ITEM: TIMESTEP
1100
ITEM: NUMBER OF ATOMS
2
ITEM: BOX BOUNDS pp pp pp
-2.5 2.5
-2.5 2.5
-2.5 2.5
ITEM: ATOMS id type x y z element 
1 1 -8.7172879e-001 1.6470591e+000 -3.4672081e-001 A 
2 1 1.4078846e+000 -5.9311931e-001 1.9967639e+000 A 
ITEM: TIMESTEP
1200
ITEM: NUMBER OF ATOMS
2
ITEM: BOX BOUNDS pp pp pp
-2.5 2.5
-2.5 2.5
-2.5 2.5
ITEM: ATOMS id type x y z element 
1 1 -8.9645083e-001 1.7432289e+000 -4.5171453e-001 A 
2 1 1.4716481e+000 -5.7173827e-001 1.9800921e+000 A 
ITEM: TIMESTEP
1300
ITEM: NUMBER OF ATOMS
2
ITEM: BOX BOUNDS pp pp pp
-2.5 2.5
-2.5 2.5
-2.5 2.5
ITEM: ATOMS id type x y z element 
1 1 -8.9350486e-001 1.8430411e+000 -5.5599638e-001 A 
2 1 1.5188467e+000 -5.1338297e-001 1.9408815e+000 A 
ITEM: TIMESTEP
1400
ITEM: NUMBER OF ATOMS
2
ITEM: BOX BOUNDS pp pp pp
-2.5 2.5
-2.5 2.5
-2.5 2.5
ITEM: ATOMS id type x y z element 
1 1 -8.6418681e-001 1.9279435e+000 -7.0133677e-001 A 
2 1 1.5260679e+000 -4.6593809e-001 1.8926753e+000 A 
ITEM: TIMESTEP
1500
ITEM: NUMBER OF ATOMS
2
ITEM: BOX BOUNDS pp pp pp
-2.5 2.5
-2.5 2.5
-2.5 2.5
ITEM: ATOMS id type x y z element 
1 1 -8.6208613e-001 1.9917061e+000 -8.7845802e-001 A 
2 1 1.5070927e+000 -4.0995416e-001 1.9009425e+000 A 
ITEM: TIMESTEP
1600
ITEM: NUMBER OF ATOMS
2
ITEM: BOX BOUNDS pp pp pp
-2.5 2.5
-2.5 2.5
-2.5 2.5
ITEM: ATOMS id type x y z element 
1 1 -8.2320219e-001 2.0361392e+000 -1.0879173e+000 A 
2 1 1.5619851e+000 -2.9379736e-001 1.9939196e+000 A 
ITEM: TIMESTEP
1700
ITEM: NUMBER OF ATOMS
2
ITEM: BOX BOUNDS pp pp pp
-2.5 2.5
-2.5 2.5
-2.5 2.5
ITEM: ATOMS id type x y z element 
1 1 -8.3354860e-001 2.0671685e+000 -1.2694482e+000 A 
2 1 1.6481917e+000 -1.3937651e-001 2.0499938e+000 A 
ITEM: TIMESTEP
1800
ITEM: NUMBER OF ATOMS
2
ITEM: BOX BOUNDS pp pp pp
-2.5 2.5
-2.5 2.5
-2.5 2.5
ITEM: ATOMS id type x y z element 
1 1 -8.0106693e-001 2.1129852e+000 -1.4082058e+000 A 
2 1 1.7607077e+000 4.4424925e-002 2.1092759e+000 A 
ITEM: TIMESTEP
1900
ITEM: NUMBER OF ATOMS
2
ITEM: BOX BOUNDS pp pp pp
-2.5 2.5
-2.5 2.5
-2.5 2.5
ITEM: ATOMS id type x y z element 
1 1 -7.9174133e-001 2.2371505e+000 -1.5025005e+000 A 
2 1 1.8440030e+000 2.6299495e-001 2.1455785e+000 A 
ITEM: TIMESTEP
2000
ITEM: NUMBER OF ATOMS
2
ITEM: BOX BOUNDS pp pp pp
-2.5 2.5
-2.5 2.5
-2.5 2.5
ITEM: ATOMS id type x y z element 
1 1 -8.0770392e-001 2.4256004e+000 -1.5323918e+000 A 
2 1 1.9066152e+000 4.9477828e-001 2.1694968e+000 A 
ITEM: TIMESTEP
2100
ITEM: NUMBER OF ATOMS
2
ITEM: BOX BOUNDS pp pp pp
-2.5 2.5
-2.5 2.5
-2.5 2.5
ITEM: ATOMS id type x y z element 
1 1 -8.5346631e-001 -2.4158387e+000 -1.5430197e+000 A 
2 1 1.9726926e+000 7.0038451e-001 2.1794417e+000 A 
ITEM: TIMESTEP
2200
ITEM: NUMBER OF ATOMS
2
ITEM: BOX BOUNDS pp pp pp
-2.5 2.5
-2.5 2.5
-2.5 2.5
ITEM: ATOMS id type x y z element 
1 1 -9.5509671e-001 -2.2592994e+000 -1.5465681e+000 A 
2 1 2.0412565e+000 9.4791925e-001 2.2138926e+000 A 
ITEM: TIMESTEP
2300
ITEM: NUMBER OF ATOMS
2
ITEM: BOX BOUNDS pp pp pp
-2.5 2.5
-2.5 2.5
-2.5 2.5
ITEM: ATOMS id type x y z element 
1 1 -1.0757391e+000 -2.1393096e+000 -1.5381889e+000 A 
2 1 2.1422430e+000 1.2421836e+000 2.2355593e+000 A 
ITEM: TIMESTEP
2400
ITEM: NUMBER OF ATOMS
2
ITEM: BOX BOUNDS pp pp pp
-2.5 2.5
-2.5 2.5
-2.5 2.5
ITEM: ATOMS id type x y z element 
1 1 -1.2361804e+000 -2.0270693e+000 -1.4933994e+000 A 
2 1 2.2896529e+000 1.5670271e+000 2.2241491e+000 A 
ITEM: TIMESTEP
2500
ITEM: NUMBER OF ATOMS
2
ITEM: BOX BOUNDS pp pp pp
-2.5 2.5
-2.5 2.5
-2.5 2.5
ITEM: ATOMS id type x y z element 
1 1 -1.3873471e+000 -1.9940414e+000 -1.4454088e+000 A 
2 1 2.4186240e+000 1.9332833e+000 2.2439123e+000 A 
ITEM: TIMESTEP
2600
ITEM: NUMBER OF ATOMS
2
ITEM: BOX BOUNDS pp pp pp
-2.5 2.5
-2.5 2.5
-2.5 2.5
ITEM: ATOMS id type x y z element 
1 1 -1.5608015e+000 -1.9664681e+000 -1.3616708e+000 A 
2 1 -2.4370458e+000 2.2670424e+000 2.2772462e+000 A 
ITEM: TIMESTEP
2700
ITEM: NUMBER OF ATOMS
2
ITEM: BOX BOUNDS pp pp pp
-2.5 2.5
-2.5 2.5
-2.5 2.5
ITEM: ATOMS id type x y z element 
1 1 -1.7048164e+000 -1.9414574e+000 -1.2750759e+000 A 
2 1 -2.3083660e+000 -2.4386074e+000 2.3563180e+000 A 
ITEM: TIMESTEP
2800
ITEM: NUMBER OF ATOMS
2
ITEM: BOX BOUNDS pp pp pp
-2.5 2.5
-2.5 2.5
-2.5 2.5
ITEM: ATOMS id type x y z element 
1 1 -1.8345021e+000 -1.9546965e+000 -1.2066801e+000 A 
2 1 -2.2258401e+000 -2.1707042e+000 2.5128706e+000 A 
ITEM: TIMESTEP
2900
ITEM: NUMBER OF ATOMS
2
ITEM: BOX BOUNDS pp pp pp
-2.5 2.5
-2.5 2.5
-2.5 2.5
ITEM: ATOMS id type x y z element 
1 1 -1.9164823e+000 -2.0231991e+000 -1.1292429e+000 A 
2 1 -2.1367146e+000 -1.9978644e+000 -2.3528872e+000 A 
ITEM: TIMESTEP
3000
ITEM: NUMBER OF ATOMS
2
ITEM: BOX BOUNDS pp pp pp
-2.5 2.5
-2.5 2.5
-2.5 2.5
ITEM: ATOMS id type x y z element 
1 1 -1.9128159e+000 -2.0962247e+000 -1.0037389e+000 A 
2 1 -2.0290069e+000 -1.8331218e+000 -2.2709547e+000 A 
ITEM: TIMESTEP
3100
ITEM: NUMBER OF ATOMS
2
ITEM: BOX BOUNDS pp pp pp
-2.5 2.5
-2.5 2.5
-2.5 2.5
ITEM: ATOMS id type x y z element 
1 1 -1.8216743e+000 -2.1921358e+000 -8.9548766e-001 A 
2 1 -1.9666396e+000 -1.6717842e+000 -2.2188826e+000 A 
ITEM: TIMESTEP
3200
ITEM: NUMBER OF ATOMS
2
ITEM: BOX BOUNDS pp pp pp
-2.5 2.5
-2.5 2.5
-2.5 2.5
ITEM: ATOMS id type x y z element 
1 1 -1.7329816e+000 -2.2995660e+000 -7.3515702e-001 A 
2 1 -1.9318862e+000 -1.5771207e+000 -2.1608307e+000 A 
ITEM: TIMESTEP
3300
ITEM: NUMBER OF ATOMS
2
ITEM: BOX BOUNDS pp pp pp
-2.5 2.5
-2.5 2.5
-2.5 2.5
ITEM: ATOMS id type x y z element 
1 1 -1.6791082e+000 -2.4188581e+000 -5.6140941e-001 A 
2 1 -1.8845141e+000 -1.5360170e+000 -2.1124909e+000 A 
ITEM: TIMESTEP
3400
ITEM: NUMBER OF ATOMS
2
ITEM: BOX BOUNDS pp pp pp
-2.5 2.5
-2.5 2.5
-2.5 2.5
ITEM: ATOMS id type x y z element 
1 1 -1.6059336e+000 -2.5331052e+000 -3.8869007e-001 A 
2 1 -1.8371095e+000 -1.5055939e+000 -2.0701598e+000 A 
ITEM: TIMESTEP
3500
ITEM: NUMBER OF ATOMS
2
ITEM: BOX BOUNDS pp pp pp
-2.5 2.5
-2.5 2.5
-2.5 2.5
ITEM: ATOMS id type x y z element 
1 1 -1.5500772e+000 2.4253169e+000 -2.5409067e-001 A 
2 1 -1.7551223e+000 -1.4786076e+000 -2.0958297e+000 A 
ITEM: TIMESTEP
3600
ITEM: NUMBER OF ATOMS
2
ITEM: BOX BOUNDS pp pp pp
-2.5 2.5
-2.5 2.5
-2.5 2.5
ITEM: ATOMS id type x y z element 
1 1 -1.4434792e+000 2.4068141e+000 -6.5610076e-002 A 
2 1 -1.6662513e+000 -1.4657002e+000 -2.1367274e+000 A 
ITEM: TIMESTEP
3700
ITEM: NUMBER OF ATOMS
2
ITEM: BOX BOUNDS pp pp pp
-2.5 2.5
-2.5 2.5
-2.5 2.5
ITEM: ATOMS id type x y z element 
1 1 -1.2757523e+000 2.3701750e+000 1.2345911e-001 A 
2 1 -1.5842273e+000 -1.4479149e+000 -2.1281699e+000 A 
ITEM: TIMESTEP
3800
ITEM: NUMBER OF ATOMS
2
ITEM: BOX BOUNDS pp pp pp
-2.5 2.5
-2.5 2.5
-2.5 2.5
ITEM: ATOMS id type x y z element 
1 1 -1.0332462e+000 2.3623384e+000 2.8889065e-001 A 
2 1 -1.5071561e+000 -1.4267829e+000 -2.0664742e+000 A 
ITEM: TIMESTEP
3900
ITEM: NUMBER OF ATOMS
2
ITEM: BOX BOUNDS pp pp pp
-2.5 2.5
-2.5 2.5
-2.5 2.5
ITEM: ATOMS id type x y z element 
1 1 -8.3980688e-001 2.3123635e+000 4.7212251e-001 A 
2 1 -1.4098048e+000 -1.4103902e+000 -1.9957010e+000 A 
ITEM: TIMESTEP
4000
ITEM: NUMBER OF ATOMS
2
ITEM: BOX BOUNDS pp pp pp
-2.5 2.5
-2.5 2.5
-2.5 2.5
ITEM: ATOMS id type x y z element 
1 1 -6.6265548e-001 2.2877228e+000 6.5079085e-001 A 
2 1 -1.3349809e+000 -1.3844522e+000 -1.9455783e+000 A 
ITEM: TIMESTEP
4100
ITEM: NUMBER OF ATOMS
2
ITEM: BOX BOUNDS pp pp pp
-2.5 2.5
-2.5 2.5
-2.5 2.5
ITEM: ATOMS id type x y z element 
1 1 -4.8662820e-001 2.2381040e+000 8.1545056e-001 A 
2 1 -1.2213352e+000 -1.4025816e+000 -1.9227829e+000 A 
ITEM: TIMESTEP
4200
ITEM: NUMBER OF ATOMS
2
ITEM: BOX BOUNDS pp pp pp
-2.5 2.5
-2.5 2.5
-2.5 2.5
ITEM: ATOMS id type x y z element 
1 1 -3.3609404e-001 2.1372073e+000 9.7385174e-001 A 
2 1 -1.1696526e+000 -1.3701030e+000 -1.8867757e+000 A 
ITEM: TIMESTEP
4300
ITEM: NUMBER OF ATOMS
2
ITEM: BOX BOUNDS pp pp pp
-2.5 2.5
-2.5 2.5
-2.5 2.5
ITEM: ATOMS id type x y z element 
1 1 -2.1395112e-001 2.0094615e+000 1.0668208e+000 A 
2 1 -1.1252486e+000 -1.3245853e+000 -1.8821433e+000 A 
ITEM: TIMESTEP
4400
ITEM: NUMBER OF ATOMS
2
ITEM: BOX BOUNDS pp pp pp
-2.5 2.5
-2.5 2.5
-2.5 2.5
ITEM: ATOMS id type x y z element 
1 1 -1.0753651e-001 1.9193291e+000 1.2037156e+000 A 
2 1 -1.0674630e+000 -1.3205743e+000 -1.8908460e+000 A 
ITEM: TIMESTEP
4500
ITEM: NUMBER OF ATOMS
2
ITEM: BOX BOUNDS pp pp pp
-2.5 2.5
-2.5 2.5
-2.5 2.5
ITEM: ATOMS id type x y z element 
1 1 -6.6250177e-002 1.8151372e+000 1.2902246e+000 A 
2 1 -1.0388442e+000 -1.2802031e+000 -1.8918890e+000 A 
ITEM: TIMESTEP
4600
ITEM: NUMBER OF ATOMS
2
ITEM: BOX BOUNDS pp pp pp
-2.5 2.5
-2.5 2.5
-2.5 2.5
ITEM: ATOMS id type x y z element 
1 1 1.9749357e-003 1.7381473e+000 1.3934641e+000 A 
2 1 -1.0598597e+000 -1.2621923e+000 -1.8681229e+000 A 
ITEM: TIMESTEP
4700
ITEM: NUMBER OF ATOMS
2
ITEM: BOX BOUNDS pp pp pp
-2.5 2.5
-2.5 2.5
-2.5 2.5
ITEM: ATOMS id type x y z element 
1 1 5.7818678e-002 1.6703013e+000 1.5271599e+000 A 
2 1 -1.1070257e+000 -1.2450294e+000 -1.8292307e+000 A 
ITEM: TIMESTEP
4800
ITEM: NUMBER OF ATOMS
2
ITEM: BOX BOUNDS pp pp pp
-2.5 2.5
-2.5 2.5
-2.5 2.5
ITEM: ATOMS id type x y z element 
1 1 1.0169877e-001 1.5864769e+000 1.6601524e+000 A 
2 1 -1.1887517e+000 -1.2009626e+000 -1.8240855e+000 A 
ITEM: TIMESTEP
4900
ITEM: NUMBER OF ATOMS
2
ITEM: BOX BOUNDS pp pp pp
-2.5 2.5
-2.5 2.5
-2.5 2.5
ITEM: ATOMS id type x y z element 
1 1 1.4849295e-001 1.4771078e+000 1.7846232e+000 A 
2 1 -1.2479936e+000 -1.1783938e+000 -1.8059724e+000 A 
ITEM: TIMESTEP
5000
ITEM: NUMBER OF ATOMS
2
ITEM: BOX BOUNDS pp pp pp
-2.5 2.5
-2.5 2.5
-2.5 2.5
ITEM: ATOMS id type x y z element 
1 1 2.1937173e-001 1.3760743e+000 1.9048643e+000 A 
2 1 -1.3123214e+000 -1.1647189e+000 -1.7350958e+000 A 
ITEM: TIMESTEP
5100
ITEM: NUMBER OF ATOMS
2
ITEM: BOX BOUNDS pp pp pp
-2.5 2.5
-2.5 2.5
-2.5 2.5
ITEM: ATOMS id type x y z element 
1 1 2.8298955e-001 1.3397045e+000 2.0586826e+000 A 
2 1 -1.3885601e+000 -1.1136808e+000 -1.6654675e+000 A 
ITEM: TIMESTEP
5200
ITEM: NUMBER OF ATOMS
2
ITEM: BOX BOUNDS pp pp pp
-2.5 2.5
-2.5 2.5
-2.5 2.5
ITEM: ATOMS id type x y z element 
1 1 3.5787091e-001 1.3602023e+000 2.1738729e+000 A 
2 1 -1.4913974e+000 -1.0326100e+000 -1.5572291e+000 A 
ITEM: TIMESTEP
5300
ITEM: NUMBER OF ATOMS
2
ITEM: BOX BOUNDS pp pp pp
-2.5 2.5
-2.5 2.5
-2.5 2.5
ITEM: ATOMS id type x y z element 
1 1 4.5653432e-001 1.3459366e+000 2.2914924e+000 A 
2 1 -1.6258306e+000 -9.4625179e-001 -1.4962825e+000 A 
ITEM: TIMESTEP
5400
ITEM: NUMBER OF ATOMS
2
ITEM: BOX BOUNDS pp pp pp
-2.5 2.5
-2.5 2.5
-2.5 2.5
ITEM: ATOMS id type x y z element 
1 1 5.3082613e-001 1.2815820e+000 2.4027013e+000 A 
2 1 -1.7495085e+000 -8.5903068e-001 -1.4877974e+000 A 
ITEM: TIMESTEP
5500
ITEM: NUMBER OF ATOMS
2
ITEM: BOX BOUNDS pp pp pp
-2.5 2.5
-2.5 2.5
-2.5 2.5
ITEM: ATOMS id type x y z element 
1 1 6.2050571e-001 1.1730505e+000 2.5087795e+000 A 
2 1 -1.8720321e+000 -7.4857946e-001 -1.4518731e+000 A 
ITEM: TIMESTEP
5600
ITEM: NUMBER OF ATOMS
2
ITEM: BOX BOUNDS pp pp pp
-2.5 2.5
-2.5 2.5
-2.5 2.5
ITEM: ATOMS id type x y z element 
1 1 6.4238244e-001 1.0168886e+000 -2.4241036e+000 A 
2 1 -2.0586089e+000 -5.8263312e-001 -1.4377438e+000 A 
ITEM: TIMESTEP
5700
ITEM: NUMBER OF ATOMS
2
ITEM: BOX BOUNDS pp pp pp
-2.5 2.5
-2.5 2.5
-2.5 2.5
ITEM: ATOMS id type x y z element 
1 1 7.0313768e-001 8.9586686e-001 -2.3935951e+000 A 
2 1 -2.2255541e+000 -4.6557456e-001 -1.4422829e+000 A 
ITEM: TIMESTEP
5800
ITEM: NUMBER OF ATOMS
2
ITEM: BOX BOUNDS pp pp pp
-2.5 2.5
-2.5 2.5
-2.5 2.5
ITEM: ATOMS id type x y z element 
1 1 7.8908336e-001 8.2530143e-001 -2.3562992e+000 A 
2 1 -2.3469782e+000 -4.0145876e-001 -1.4263732e+000 A 
ITEM: TIMESTEP
5900
ITEM: NUMBER OF ATOMS
2
ITEM: BOX BOUNDS pp pp pp
-2.5 2.5
-2.5 2.5
-2.5 2.5
ITEM: ATOMS id type x y z element 
1 1 8.8268978e-001 7.9532604e-001 -2.3514009e+000 A 
2 1 2.4904982e+000 -3.2580220e-001 -1.4354732e+000 A 
ITEM: TIMESTEP
6000
ITEM: NUMBER OF ATOMS
2
ITEM: BOX BOUNDS pp pp pp
-2.5 2.5
-2.5 2.5
-2.5 2.5
ITEM: ATOMS id type x y z element 
1 1 1.0098891e+000 7.1574336e-001 -2.3543248e+000 A 
2 1 2.3300209e+000 -2.6424771e-001 -1.4022505e+000 A 
ITEM: TIMESTEP
6100
ITEM: NUMBER OF ATOMS
2
ITEM: BOX BOUNDS pp pp pp
-2.5 2.5
-2.5 2.5
-2.5 2.5
ITEM: ATOMS id type x y z element 
1 1 1.1030037e+000 6.9070274e-001 -2.3742104e+000 A 
2 1 2.1405334e+000 -2.1619831e-001 -1.3152645e+000 A 
ITEM: TIMESTEP
6200
ITEM: NUMBER OF ATOMS
2
ITEM: BOX BOUNDS pp pp pp
-2.5 2.5
-2.5 2.5
-2.5 2.5
ITEM: ATOMS id type x y z element 
1 1 1.1811765e+000 6.8305817e-001 -2.3929293e+000 A 
2 1 1.9519798e+000 -2.0401455e-001 -1.2730876e+000 A 
ITEM: TIMESTEP
6300
ITEM: NUMBER OF ATOMS
2
ITEM: BOX BOUNDS pp pp pp
-2.5 2.5
-2.5 2.5
-2.5 2.5
ITEM: ATOMS id type x y z element 
1 1 1.2168355e+000 6.8294553e-001 -2.4359447e+000 A 
2 1 1.7345433e+000 -2.7799660e-001 -1.2026296e+000 A 
ITEM: TIMESTEP
6400
ITEM: NUMBER OF ATOMS
2
ITEM: BOX BOUNDS pp pp pp
-2.5 2.5
-2.5 2.5
-2.5 2.5
ITEM: ATOMS id type x y z element 
1 1 1.2007635e+000 7.0787717e-001 2.4799111e+000 A 
2 1 1.5346248e+000 -3.5892139e-001 -1.1340973e+000 A 
ITEM: TIMESTEP
6500
ITEM: NUMBER OF ATOMS
2
ITEM: BOX BOUNDS pp pp pp
-2.5 2.5
-2.5 2.5
-2.5 2.5
ITEM: ATOMS id type x y z element 
1 1 1.1457417e+000 7.0875074e-001 2.4099631e+000 A 
2 1 1.3401738e+000 -3.9850426e-001 -1.0840103e+000 A 
ITEM: TIMESTEP
6600
ITEM: NUMBER OF ATOMS
2
ITEM: BOX BOUNDS pp pp pp
-2.5 2.5
-2.5 2.5
-2.5 2.5
ITEM: ATOMS id type x y z element 
1 1 1.0411291e+000 6.9175110e-001 2.3598221e+000 A 
2 1 1.2154460e+000 -4.1553317e-001 -1.0291676e+000 A 
ITEM: TIMESTEP
6700
ITEM: NUMBER OF ATOMS
2
ITEM: BOX BOUNDS pp pp pp
-2.5 2.5
-2.5 2.5
-2.5 2.5
ITEM: ATOMS id type x y z element 
1 1 8.7946023e-001 6.3628683e-001 2.3115301e+000 A 
2 1 1.1294874e+000 -4.2315585e-001 -9.7639818e-001 A 
ITEM: TIMESTEP
6800
ITEM: NUMBER OF ATOMS
2
ITEM: BOX BOUNDS pp pp pp
-2.5 2.5
-2.5 2.5
-2.5 2.5
ITEM: ATOMS id type x y z element 
1 1 7.4765947e-001 6.2431243e-001 2.2898477e+000 A 
2 1 1.0228774e+000 -4.4301407e-001 -9.1641409e-001 A 
ITEM: TIMESTEP
6900
ITEM: NUMBER OF ATOMS
2
ITEM: BOX BOUNDS pp pp pp
-2.5 2.5
-2.5 2.5
-2.5 2.5
ITEM: ATOMS id type x y z element 
1 1 6.4032636e-001 6.3449391e-001 2.2094303e+000 A 
2 1 9.1423242e-001 -5.0643284e-001 -8.1618805e-001 A 
ITEM: TIMESTEP
7000
ITEM: NUMBER OF ATOMS
2
ITEM: BOX BOUNDS pp pp pp
-2.5 2.5
-2.5 2.5
-2.5 2.5
ITEM: ATOMS id type x y z element 
1 1 5.5850301e-001 6.3547505e-001 2.1591209e+000 A 
2 1 8.3750325e-001 -6.1796856e-001 -7.1133345e-001 A 
ITEM: TIMESTEP
7100
ITEM: NUMBER OF ATOMS
2
ITEM: BOX BOUNDS pp pp pp
-2.5 2.5
-2.5 2.5
-2.5 2.5
ITEM: ATOMS id type x y z element 
1 1 5.6192119e-001 6.5318354e-001 2.1383388e+000 A 
2 1 7.5164037e-001 -7.4482335e-001 -5.9398282e-001 A 
ITEM: TIMESTEP
7200
ITEM: NUMBER OF ATOMS
2
ITEM: BOX BOUNDS pp pp pp
-2.5 2.5
-2.5 2.5
-2.5 2.5
ITEM: ATOMS id type x y z element 
1 1 5.9983395e-001 6.5938434e-001 2.1560242e+000 A 
2 1 6.7019152e-001 -8.9247642e-001 -5.8500209e-001 A 
ITEM: TIMESTEP
7300
ITEM: NUMBER OF ATOMS
2
ITEM: BOX BOUNDS pp pp pp
-2.5 2.5
-2.5 2.5
-2.5 2.5
ITEM: ATOMS id type x y z element 
1 1 6.5260380e-001 6.4349890e-001 2.1408724e+000 A 
2 1 5.8449230e-001 -1.0320311e+000 -5.9611361e-001 A 
ITEM: TIMESTEP
7400
ITEM: NUMBER OF ATOMS
2
ITEM: BOX BOUNDS pp pp pp
-2.5 2.5
-2.5 2.5
-2.5 2.5
ITEM: ATOMS id type x y z element 
1 1 7.1887270e-001 5.9223335e-001 2.1319703e+000 A 
2 1 4.5868464e-001 -1.1718529e+000 -5.9275278e-001 A 
ITEM: TIMESTEP
7500
ITEM: NUMBER OF ATOMS
2
ITEM: BOX BOUNDS pp pp pp
-2.5 2.5
-2.5 2.5
-2.5 2.5
ITEM: ATOMS id type x y z element 
1 1 8.0190077e-001 5.2556050e-001 2.1544643e+000 A 
2 1 3.0221673e-001 -1.2660800e+000 -5.5625512e-001 A 
ITEM: TIMESTEP
7600
ITEM: NUMBER OF ATOMS
2
ITEM: BOX BOUNDS pp pp pp
-2.5 2.5
-2.5 2.5
-2.5 2.5
ITEM: ATOMS id type x y z element 
1 1 9.4571183e-001 4.9959913e-001 2.2111409e+000 A 
2 1 1.4546228e-001 -1.3339871e+000 -5.6108929e-001 A 
ITEM: TIMESTEP
7700
ITEM: NUMBER OF ATOMS
2
ITEM: BOX BOUNDS pp pp pp
-2.5 2.5
-2.5 2.5
-2.5 2.5
ITEM: ATOMS id type x y z element 
1 1 1.0582547e+000 4.9632535e-001 2.2844673e+000 A 
2 1 -2.7559009e-003 -1.4355716e+000 -5.6276010e-001 A 
ITEM: TIMESTEP
7800
ITEM: NUMBER OF ATOMS
2
ITEM: BOX BOUNDS pp pp pp
-2.5 2.5
-2.5 2.5
-2.5 2.5
ITEM: ATOMS id type x y z element 
1 1 1.1152408e+000 5.0797108e-001 2.3460829e+000 A 
2 1 -1.4764000e-001 -1.5798672e+000 -5.0877964e-001 A 
ITEM: TIMESTEP
7900
ITEM: NUMBER OF ATOMS
2
ITEM: BOX BOUNDS pp pp pp
-2.5 2.5
-2.5 2.5
-2.5 2.5
ITEM: ATOMS id type x y z element 
1 1 1.1280686e+000 5.5609968e-001 2.4251850e+000 A 
2 1 -2.7451545e-001 -1.7823546e+000 -4.6562858e-001 A 
ITEM: TIMESTEP
8000
ITEM: NUMBER OF ATOMS
2
ITEM: BOX BOUNDS pp pp pp
-2.5 2.5
-2.5 2.5
-2.5 2.5
ITEM: ATOMS id type x y z element 
1 1 1.1894857e+000 5.8557329e-001 2.4910383e+000 A 
2 1 -3.9495835e-001 -1.9661888e+000 -4.2241801e-001 A 
ITEM: TIMESTEP
8100
ITEM: NUMBER OF ATOMS
2
ITEM: BOX BOUNDS pp pp pp
-2.5 2.5
-2.5 2.5
-2.5 2.5
ITEM: ATOMS id type x y z element 
1 1 1.2668414e+000 6.3321228e-001 -2.4711537e+000 A 
2 1 -4.9527637e-001 -2.1316465e+000 -3.7989189e-001 A 
ITEM: TIMESTEP
8200
ITEM: NUMBER OF ATOMS
2
ITEM: BOX BOUNDS pp pp pp
-2.5 2.5
-2.5 2.5
-2.5 2.5
ITEM: ATOMS id type x y z element 
1 1 1.3397692e+000 7.1255933e-001 -2.4746191e+000 A 
2 1 -6.5190857e-001 -2.3199990e+000 -3.3555263e-001 A 
ITEM: TIMESTEP
8300
ITEM: NUMBER OF ATOMS
2
ITEM: BOX BOUNDS pp pp pp
-2.5 2.5
-2.5 2.5
-2.5 2.5
ITEM: ATOMS id type x y z element 
1 1 1.3997565e+000 7.7733923e-001 -2.4789749e+000 A 
2 1 -7.6555282e-001 -2.5064332e+000 -3.0323802e-001 A 
ITEM: TIMESTEP
8400
ITEM: NUMBER OF ATOMS
2
ITEM: BOX BOUNDS pp pp pp
-2.5 2.5
-2.5 2.5
-2.5 2.5
ITEM: ATOMS id type x y z element 
1 1 1.4544120e+000 8.0724463e-001 -2.4593426e+000 A 
2 1 -7.9719511e-001 2.3434680e+000 -2.6784751e-001 A 
ITEM: TIMESTEP
8500
ITEM: NUMBER OF ATOMS
2
ITEM: BOX BOUNDS pp pp pp
-2.5 2.5
-2.5 2.5
-2.5 2.5
ITEM: ATOMS id type x y z element 
1 1 1.5239646e+000 8.1607708e-001 -2.3608819e+000 A 
2 1 -7.5630688e-001 2.2169551e+000 -2.5404129e-001 A 
ITEM: TIMESTEP
8600
ITEM: NUMBER OF ATOMS
2
ITEM: BOX BOUNDS pp pp pp
-2.5 2.5
-2.5 2.5
-2.5 2.5
ITEM: ATOMS id type x y z element 
1 1 1.6129653e+000 8.4185870e-001 -2.3148785e+000 A 
2 1 -7.0533500e-001 2.1108413e+000 -1.8310229e-001 A 
ITEM: TIMESTEP
8700
ITEM: NUMBER OF ATOMS
2
ITEM: BOX BOUNDS pp pp pp
-2.5 2.5
-2.5 2.5
-2.5 2.5
ITEM: ATOMS id type x y z element 
1 1 1.7094351e+000 8.7076233e-001 -2.3122461e+000 A 
2 1 -6.5458592e-001 1.9909816e+000 -8.7627072e-002 A 
ITEM: TIMESTEP
8800
ITEM: NUMBER OF ATOMS
2
ITEM: BOX BOUNDS pp pp pp
-2.5 2.5
-2.5 2.5
-2.5 2.5
ITEM: ATOMS id type x y z element 
1 1 1.7728029e+000 8.7173185e-001 -2.3561787e+000 A 
2 1 -5.7784825e-001 1.8622926e+000 -1.3554890e-002 A 
ITEM: TIMESTEP
8900
ITEM: NUMBER OF ATOMS
2
ITEM: BOX BOUNDS pp pp pp
-2.5 2.5
-2.5 2.5
-2.5 2.5
ITEM: ATOMS id type x y z element 
1 1 1.7953069e+000 8.9584570e-001 -2.3642727e+000 A 
2 1 -4.8964425e-001 1.6967046e+000 4.0973713e-002 A 
ITEM: TIMESTEP
9000
ITEM: NUMBER OF ATOMS
2
ITEM: BOX BOUNDS pp pp pp
-2.5 2.5
-2.5 2.5
-2.5 2.5
ITEM: ATOMS id type x y z element 
1 1 1.7627828e+000 9.4932894e-001 -2.3680339e+000 A 
2 1 -4.1966727e-001 1.5708799e+000 6.8223190e-002 A 
ITEM: TIMESTEP
9100
ITEM: NUMBER OF ATOMS
2
ITEM: BOX BOUNDS pp pp pp
-2.5 2.5
-2.5 2.5
-2.5 2.5
ITEM: ATOMS id type x y z element 
1 1 1.7071123e+000 9.1863197e-001 -2.4025572e+000 A 
2 1 -3.5520451e-001 1.5391207e+000 8.7497430e-002 A 
ITEM: TIMESTEP
9200
ITEM: NUMBER OF ATOMS
2
ITEM: BOX BOUNDS pp pp pp
-2.5 2.5
-2.5 2.5
-2.5 2.5
ITEM: ATOMS id type x y z element 
1 1 1.7022477e+000 8.7734397e-001 -2.4645207e+000 A 
2 1 -3.2017985e-001 1.5456026e+000 1.2195770e-001 A 
ITEM: TIMESTEP
9300
ITEM: NUMBER OF ATOMS
2
ITEM: BOX BOUNDS pp pp pp
-2.5 2.5
-2.5 2.5
-2.5 2.5
ITEM: ATOMS id type x y z element 
1 1 1.7267758e+000 8.0869122e-001 -2.5399549e+000 A 
2 1 -3.2490906e-001 1.5391156e+000 1.3063355e-001 A 
ITEM: TIMESTEP
9400
ITEM: NUMBER OF ATOMS
2
ITEM: BOX BOUNDS pp pp pp
-2.5 2.5
-2.5 2.5
-2.5 2.5
ITEM: ATOMS id type x y z element 
1 1 1.7453363e+000 7.7227394e-001 2.3280271e+000 A 
2 1 -3.5386766e-001 1.5163835e+000 1.5509346e-001 A 
ITEM: TIMESTEP
9500
ITEM: NUMBER OF ATOMS
2
ITEM: BOX BOUNDS pp pp pp
-2.5 2.5
-2.5 2.5
-2.5 2.5
ITEM: ATOMS id type x y z element 
1 1 1.8178869e+000 7.4641321e-001 2.1716108e+000 A 
2 1 -3.9965437e-001 1.4539321e+000 1.8349344e-001 A 
ITEM: TIMESTEP
9600
ITEM: NUMBER OF ATOMS
2
ITEM: BOX BOUNDS pp pp pp
-2.5 2.5
-2.5 2.5
-2.5 2.5
ITEM: ATOMS id type x y z element 
1 1 1.9622775e+000 7.4216999e-001 1.9907171e+000 A 
2 1 -4.5246389e-001 1.3828410e+000 1.7255418e-001 A 
ITEM: TIMESTEP
9700
ITEM: NUMBER OF ATOMS
2
ITEM: BOX BOUNDS pp pp pp
-2.5 2.5
-2.5 2.5
-2.5 2.5
ITEM: ATOMS id type x y z element 
1 1 2.0455543e+000 7.8368469e-001 1.7889208e+000 A 
2 1 -4.8744010e-001 1.2704319e+000 9.5967896e-002 A 
ITEM: TIMESTEP
9800
ITEM: NUMBER OF ATOMS
2
ITEM: BOX BOUNDS pp pp pp
-2.5 2.5
-2.5 2.5
-2.5 2.5
ITEM: ATOMS id type x y z element 
1 1 2.1689415e+000 8.2703381e-001 1.5638899e+000 A 
2 1 -5.3623585e-001 1.1398894e+000 6.3605555e-002 A 
ITEM: TIMESTEP
9900
ITEM: NUMBER OF ATOMS
2
ITEM: BOX BOUNDS pp pp pp
-2.5 2.5
-2.5 2.5
-2.5 2.5
ITEM: ATOMS id type x y z element 
1 1 2.3299028e+000 8.8863953e-001 1.3679759e+000 A 
2 1 -4.9734341e-001 9.7945694e-001 2.7088544e-002 A 
ITEM: TIMESTEP
10000
ITEM: NUMBER OF ATOMS
2
ITEM: BOX BOUNDS pp pp pp
-2.5 2.5
-2.5 2.5
-2.5 2.5
ITEM: ATOMS id type x y z element 
1 1 2.4239518e+000 9.3480110e-001 1.1897558e+000 A 
2 1 -4.6193868e-001 7.8168718e-001 -9.4279132e-005 A 
