ITEM: TIMESTEP
0
ITEM: NUMBER OF ATOMS
110
ITEM: BOX BOUNDS pp pp pp
-2.5807 2.5807
-2.5807 2.5807
-2.5807 2.5807
ITEM: ATOMS id type x y z element 
1 1 0.832108 1.32845 -0.0665807 A 
2 1 -0.325603 -2.12952 -0.451145 A 
3 1 -0.589993 1.93819 -1.49857 A 
4 1 1.64981 -1.95168 -1.68351 A 
5 1 2.49433 1.35636 0.615258 A 
6 1 -1.3977 1.42581 -0.339364 A 
7 1 -2.12336 -1.31824 -2.03433 A 
8 1 -2.34476 -1.66403 -1.04269 A 
9 1 -2.53619 0.104124 2.53303 A 
10 1 -2.42159 -0.896364 2.18558 A 
11 1 0.85134 -0.653294 1.24632 A 
12 1 1.67287 -1.2036 -0.753396 A 
13 1 -2.29893 0.769078 -0.234027 A 
14 1 1.83369 1.85287 0.0473229 A 
15 1 -1.40924 -1.47384 0.986433 A 
16 1 0.0298256 2.49728 2.50619 A 
17 1 2.52202 2.42297 0.830465 A 
18 1 2.12671 1.41745 -2.47689 A 
19 1 -0.443096 -1.12513 -1.03211 A 
20 1 0.195735 -0.969841 2.11709 A 
21 1 -0.766997 1.00512 -2.17004 A 
22 1 -1.66883 -2.49273 0.798073 A 
23 1 -0.848865 0.557898 0.327169 A 
24 1 1.40872 2.15454 -2.2425 A 
25 1 1.72045 0.971022 1.48214 A 
26 1 0.702051 -0.655517 -0.889505 A 
27 1 1.01821 1.66092 1.07216 A 
28 1 -0.446784 1.87007 -0.445701 A 
29 1 0.600704 -0.0345736 1.92533 A 
30 1 1.02065 0.299243 -0.822245 A 
31 1 -1.32974 -2.57933 -0.2591 A 
32 1 -1.17689 1.35936 1.80946 A 
33 1 -0.320784 2.31201 1.44092 A 
34 1 0.00771571 1.23459 1.00062 A 
35 1 -0.69854 0.886628 -0.987551 A 
36 1 2.00105 -1.81182 2.43388 A 
37 1 -1.29765 -0.16024 -2.14428 A 
38 1 -0.27347 -2.14937 -1.5164 A 
39 1 -1.12374 1.76774 0.618421 A 
40 1 0.277855 0.872031 -1.30496 A 
41 1 -1.71501 1.94075 -1.7087 A 
42 1 -0.620192 -0.47994 1.46906 A 
43 1 1.51412 2.22791 -1.06286 A 
44 1 -2.18936 -0.167464 1.18263 A 
45 1 -0.609503 -2.28441 0.591947 A 
46 1 0.337085 -1.18059 -1.80116 A 
47 1 1.97876 -0.0515775 1.67115 A 
48 1 -1.48981 -0.384162 0.457509 A 
49 1 1.84341 -0.263076 0.662528 A 
50 1 -1.46561 0.724116 1.04851 A 
51 1 0.978371 -1.71194 -2.57921 A 
52 1 2.1098 1.96394 1.70249 A 
53 1 1.56387 -0.836878 -2.56768 A 
54 1 1.02829 2.29376 1.8619 A 
55 1 -0.350064 -0.105915 -1.16903 A 
56 1 -2.50477 2.43279 -1.05396 A 
57 1 1.00787 -0.301969 0.0465949 A 
58 1 -0.974682 -1.06385 -1.94532 A 
59 1 0.199571 0.746262 -2.34906 A 
60 1 -1.35324 0.151237 -0.502827 A 
61 1 1.53158 -1.27965 0.364032 A 
62 1 -1.70504 0.175503 2.01647 A 
63 1 2.115 -0.978433 -1.6522 A 
64 1 -2.37331 -0.159277 -1.61875 A 
65 1 -2.19041 1.98166 -0.18438 A 
66 1 -0.304181 -0.301292 -2.44195 A 
67 1 2.14233 0.0944215 -0.642595 A 
68 1 1.00409 1.31936 2.38437 A 
69 1 -0.928776 1.91185 -2.45197 A 
70 1 -0.128923 1.49294 2.23863 A 
71 1 -2.44346 -2.40825 -2.09157 A 
72 1 -0.672411 -1.32677 0.261473 A 
73 1 -2.52864 1.30896 -1.59465 A 
74 1 0.14873 2.12295 0.400142 A 
75 1 -0.384587 -1.58065 1.37438 A 
76 1 0.439899 2.09116 -0.851081 A 
77 1 0.756375 -1.77309 1.50402 A 
78 1 0.212343 0.46327 -0.0409438 A 
79 1 -1.17687 2.5013 1.85492 A 
80 1 -1.45589 -1.87532 -1.47742 A 
81 1 0.310106 1.72198 -2.00349 A 
82 1 0.645893 -2.17074 -0.00456348 A 
83 1 -1.65817 0.952382 -1.36841 A 
84 1 1.95945 1.13458 -0.770633 A 
85 1 -1.79145 1.01555 -2.50517 A 
86 1 1.92959 -2.06597 1.36286 A 
87 1 -0.0601087 -0.404655 0.754934 A 
88 1 1.39443 1.25819 -1.78879 A 
89 1 -2.56469 -0.905766 -0.0807987 A 
90 1 2.10279 -2.09022 -0.292838 A 
91 1 0.715008 -0.255838 -2.10182 A 
92 1 -0.210755 -1.59559 -2.50817 A 
93 1 0.879037 0.624865 1.13741 A 
94 1 1.75722 0.741011 0.235808 A 
95 1 1.39144 -2.54838 0.581521 A 
96 1 1.7355 -1.03776 1.48009 A 
97 1 -0.504184 0.606919 1.97974 A 
98 1 -2.49012 0.83216 1.66258 A 
99 1 0.392597 -1.12307 0.0245902 A 
100 1 -0.49738 -0.288425 -0.105886 A 
101 1 1.82008 -0.0266973 -1.5852 A 
102 1 -2.08 -1.82349 -0.0862104 A 
103 1 -1.40379 -0.920797 2.26905 A 
104 1 0.693564 -1.96771 -1.01019 A 
105 1 -2.3632 -2.00992 1.94232 A 
106 1 -2.03626 1.72781 1.30423 A 
107 1 -1.56113 -2.10272 -2.47975 A 
108 1 1.36645 0.373028 2.47627 A 
109 1 -2.43896 -1.36938 1.02675 A 
110 1 -2.14602 2.12553 2.28013 A 
ITEM: TIMESTEP
1000
ITEM: NUMBER OF ATOMS
110
ITEM: BOX BOUNDS pp pp pp
-2.5807 2.5807
-2.5807 2.5807
-2.5807 2.5807
ITEM: ATOMS id type x y z element 
1 1 0.748446 1.49618 -0.176563 A 
2 1 -0.251537 -2.11018 -0.325665 A 
3 1 -0.981109 1.77336 -1.06918 A 
4 1 1.41597 -1.92488 -1.34641 A 
5 1 2.31133 0.846368 0.942248 A 
6 1 -1.76664 1.51095 -0.3646 A 
7 1 -1.98792 -1.19976 -2.34551 A 
8 1 -2.48429 -1.96392 -0.985779 A 
9 1 -2.0997 0.81829 -2.22202 A 
10 1 2.12834 -0.788204 -2.42221 A 
11 1 0.5659 -0.995162 0.991046 A 
12 1 1.82172 -1.31727 -0.493816 A 
13 1 -2.43748 0.742796 -0.899163 A 
14 1 2.09916 1.71639 -0.528655 A 
15 1 -1.0528 -1.36772 1.06582 A 
16 1 -0.241263 -2.032 2.29811 A 
17 1 -2.52806 1.70582 0.561138 A 
18 1 1.56355 0.949582 -2.4737 A 
19 1 -0.501009 -1.46136 -1.10102 A 
20 1 0.475924 -0.647108 2.3071 A 
21 1 -1.08808 1.35539 -2.11302 A 
22 1 -1.89812 -1.99537 1.10366 A 
23 1 -1.33682 0.640288 0.192749 A 
24 1 1.02511 1.9023 -2.29337 A 
25 1 1.71395 0.260992 1.76667 A 
26 1 0.811265 -1.07953 -1.18336 A 
27 1 1.56507 2.13132 0.388343 A 
28 1 -0.242793 1.18097 0.366182 A 
29 1 0.506863 0.273268 1.64376 A 
30 1 1.06726 -0.0514564 -1.04079 A 
31 1 -1.16376 2.57236 -0.365141 A 
32 1 -1.23385 1.54004 1.81942 A 
33 1 -0.203115 2.18574 1.55821 A 
34 1 -0.219221 1.02821 1.45274 A 
35 1 -1.12692 0.747648 -0.771205 A 
36 1 1.50154 -2.3656 -2.27019 A 
37 1 -2.12422 -0.198973 -2.28732 A 
38 1 -0.87649 -2.02025 -1.89153 A 
39 1 -1.17787 2.03657 0.85592 A 
40 1 -0.163939 1.04092 -1.17781 A 
41 1 -1.53229 2.49187 -1.36794 A 
42 1 -0.263726 -0.835921 1.65372 A 
43 1 1.21958 2.22147 -0.650942 A 
44 1 -2.13285 -0.796463 1.00025 A 
45 1 -0.872039 -2.23477 0.663489 A 
46 1 -0.290504 -0.877205 -2.01931 A 
47 1 -2.46384 0.141999 1.72514 A 
48 1 -1.1956 -0.491044 0.435398 A 
49 1 1.74505 -0.137027 0.725772 A 
50 1 -1.75894 1.03875 1.1018 A 
51 1 0.271552 -1.68599 -2.10989 A 
52 1 1.65353 1.49657 1.47068 A 
53 1 1.14861 -1.19401 -2.10809 A 
54 1 0.766082 2.02082 1.31697 A 
55 1 -1.0045 0.393901 -1.7505 A 
56 1 2.06233 2.39118 -1.37074 A 
57 1 1.19481 -0.507366 -0.024434 A 
58 1 -1.42961 -0.616674 -1.59234 A 
59 1 0.310871 0.829373 -2.15716 A 
60 1 -2.31886 -0.0353234 0.4922 A 
61 1 1.75843 -1.19504 0.640592 A 
62 1 -1.44648 0.615361 2.25951 A 
63 1 -2.49398 -1.00147 -1.41416 A 
64 1 -1.89721 -0.537207 -0.412098 A 
65 1 -2.09348 2.47148 0.0595384 A 
66 1 -0.801374 -0.210406 2.51513 A 
67 1 2.04906 -0.308345 -0.529214 A 
68 1 0.65786 1.19311 2.15982 A 
69 1 -1.04859 2.27038 2.63224 A 
70 1 -0.35067 1.49519 2.35448 A 
71 1 2.3676 -1.76439 -2.08442 A 
72 1 -0.186566 -1.29841 0.408219 A 
73 1 2.28658 1.31259 -1.70444 A 
74 1 0.110635 2.28636 0.358136 A 
75 1 -0.0664419 -1.88157 1.25111 A 
76 1 -0.0393641 1.98294 -0.628485 A 
77 1 0.779122 -1.70014 1.85851 A 
78 1 0.339381 0.301757 -0.403276 A 
79 1 -0.99531 -2.3249 1.70644 A 
80 1 -1.50496 -1.53784 -1.15118 A 
81 1 -0.230991 2.01524 -1.71786 A 
82 1 0.89736 -1.8685 -0.404525 A 
83 1 -1.87405 1.47463 -1.42763 A 
84 1 1.54262 0.846497 -0.921631 A 
85 1 -2.00816 1.89805 -2.39396 A 
86 1 1.4944 -2.59803 1.67756 A 
87 1 -0.138954 -0.0196316 0.594352 A 
88 1 0.716557 1.44414 -1.44424 A 
89 1 -2.48093 -1.44563 0.191396 A 
90 1 2.08708 -2.28959 -0.191226 A 
91 1 0.604049 -0.300427 -1.85876 A 
92 1 -0.96041 -1.36451 2.42952 A 
93 1 0.683734 0.93404 0.858158 A 
94 1 1.76767 0.66759 0.119103 A 
95 1 1.10998 -2.0349 0.884972 A 
96 1 1.73169 -0.884206 1.6455 A 
97 1 -1.0502 0.133161 1.42474 A 
98 1 -2.45194 1.24972 2.02439 A 
99 1 0.308228 -0.761476 -0.338009 A 
100 1 -0.699691 -0.270816 -0.908766 A 
101 1 1.96218 0.254309 -1.72306 A 
102 1 -1.23914 -1.49217 -0.0608576 A 
103 1 -1.49172 -0.713594 1.8401 A 
104 1 0.580931 -2.51435 -1.49559 A 
105 1 -2.59831 -1.4971 1.88452 A 
106 1 -2.18457 2.24718 1.76054 A 
107 1 -1.83486 -2.04776 2.34061 A 
108 1 1.27857 0.0616906 2.63651 A 
109 1 2.32669 -2.52096 0.915972 A 
110 1 2.18216 1.96924 -2.57578 A 
ITEM: TIMESTEP
2000
ITEM: NUMBER OF ATOMS
110
ITEM: BOX BOUNDS pp pp pp
-2.5807 2.5807
-2.5807 2.5807
-2.5807 2.5807
ITEM: ATOMS id type x y z element 
1 1 0.828904 1.20175 -0.406722 A 
2 1 0.553051 -2.07627 -0.351816 A 
3 1 -1.14305 1.94076 -0.870371 A 
4 1 1.50135 -1.9974 -1.06726 A 
5 1 1.92809 0.751965 1.13933 A 
6 1 -1.87019 1.54429 -0.380229 A 
7 1 -1.7242 -1.15753 -2.32135 A 
8 1 -2.48954 -1.61439 -0.627056 A 
9 1 -1.90873 0.755547 -2.14344 A 
10 1 -2.47716 -0.481126 -2.58327 A 
11 1 0.820811 -0.840651 0.662249 A 
12 1 1.61209 -1.23138 -0.433257 A 
13 1 -2.43961 0.518351 -0.813992 A 
14 1 2.14352 1.48112 -0.767197 A 
15 1 -1.08872 -1.36732 0.994616 A 
16 1 -0.17997 -2.48489 2.12257 A 
17 1 -2.55727 1.71537 0.620365 A 
18 1 1.43411 1.39062 -2.50356 A 
19 1 -0.309416 -1.65711 -1.03829 A 
20 1 0.430773 -0.762529 -2.49408 A 
21 1 -1.13232 1.53124 -1.79605 A 
22 1 -2.14507 -1.97617 1.21354 A 
23 1 -1.5041 0.778341 0.320315 A 
24 1 0.546097 1.89849 -2.55169 A 
25 1 1.12086 0.440019 2.101 A 
26 1 0.724303 -1.35527 -1.51863 A 
27 1 1.60483 1.86712 0.27527 A 
28 1 -0.355563 0.936379 0.426469 A 
29 1 0.625003 -0.243423 1.55356 A 
30 1 1.2487 -0.41559 -1.23825 A 
31 1 -0.355547 -2.55546 -0.629216 A 
32 1 -0.693766 1.76171 1.96598 A 
33 1 -0.132276 2.24853 1.19608 A 
34 1 -0.245042 0.36008 1.20204 A 
35 1 -1.43302 0.831498 -1.10578 A 
36 1 1.58438 -2.14415 -2.13334 A 
37 1 -1.51944 -0.219595 2.25032 A 
38 1 -0.882552 -1.76615 -2.1039 A 
39 1 -0.924559 1.95454 0.463565 A 
40 1 -0.564072 1.0991 -0.679195 A 
41 1 -1.37149 -2.16572 -1.2272 A 
42 1 -0.171789 -0.767016 1.27484 A 
43 1 1.22171 2.04212 -0.733327 A 
44 1 -1.92474 -0.766097 0.623198 A 
45 1 -0.756914 -2.00642 0.239239 A 
46 1 -0.59223 -0.678175 -2.14332 A 
47 1 2.19896 -0.335896 1.66157 A 
48 1 -0.991627 -0.224027 0.664799 A 
49 1 2.08007 -0.652708 0.620365 A 
50 1 -2.14341 1.13105 1.45625 A 
51 1 0.204145 -1.81162 -2.37693 A 
52 1 1.56975 1.76814 1.64562 A 
53 1 2.0812 -1.13985 -1.82534 A 
54 1 0.734202 1.45095 1.09953 A 
55 1 -0.643883 0.514159 -1.66515 A 
56 1 2.38658 2.54169 -1.17049 A 
57 1 1.40506 -0.209601 -0.0519787 A 
58 1 -1.57088 -0.122308 -1.80972 A 
59 1 0.274224 0.117533 -2.16402 A 
60 1 -2.35136 0.0959523 0.261369 A 
61 1 1.59027 -1.70338 1.33418 A 
62 1 -1.22468 0.866127 2.15208 A 
63 1 -2.2038 -0.724459 -1.25314 A 
64 1 -1.58897 -0.135585 -0.73902 A 
65 1 -1.90598 -2.51885 0.37405 A 
66 1 -0.371063 -0.0107386 2.119 A 
67 1 2.28437 -0.562869 -0.504603 A 
68 1 0.271442 1.01755 1.95753 A 
69 1 -1.28812 2.31889 2.5312 A 
70 1 -0.350569 1.1777 -2.38116 A 
71 1 -2.43618 -1.84734 -1.72285 A 
72 1 -0.498405 -1.09193 0.00133421 A 
73 1 2.18943 1.08404 -1.7483 A 
74 1 0.123647 1.8762 -0.0457843 A 
75 1 -0.0948176 -1.70212 0.926547 A 
76 1 0.016533 1.70619 -1.16988 A 
77 1 0.491707 -1.50905 1.76524 A 
78 1 0.442187 0.208565 -0.77168 A 
79 1 -0.975062 -2.26389 1.47427 A 
80 1 -1.24865 -1.14719 -1.27835 A 
81 1 -0.506605 2.43609 -1.79313 A 
82 1 1.26502 -1.82062 0.303796 A 
83 1 -2.15381 1.60358 -1.41528 A 
84 1 1.57625 0.50193 -0.940277 A 
85 1 -2.36956 1.85725 -2.47948 A 
86 1 0.932087 -2.48901 1.82338 A 
87 1 0.104766 -0.242862 0.230449 A 
88 1 0.810939 0.920299 -1.58443 A 
89 1 2.29703 -1.56778 0.470979 A 
90 1 2.31036 2.40304 -0.171164 A 
91 1 -0.0322219 -0.545283 -1.32942 A 
92 1 -0.698947 -1.08847 2.12933 A 
93 1 0.842337 0.260753 0.684507 A 
94 1 1.92025 0.71306 0.0283268 A 
95 1 0.686878 2.48584 0.646277 A 
96 1 1.40522 -0.929038 2.07055 A 
97 1 -1.94522 -0.0446448 1.32618 A 
98 1 2.39218 0.618824 2.42545 A 
99 1 0.507201 -1.00768 -0.408445 A 
100 1 -0.662869 -0.00580481 -0.408898 A 
101 1 2.48704 0.131584 -1.70532 A 
102 1 -1.4756 -1.69211 -0.344018 A 
103 1 -1.88797 -1.13528 1.71804 A 
104 1 0.820226 2.52077 -1.75651 A 
105 1 2.24634 -1.42849 2.15918 A 
106 1 -1.82055 2.18302 1.49339 A 
107 1 -2.05084 -2.13411 2.41396 A 
108 1 1.65329 -0.182526 -2.36092 A 
109 1 2.14307 2.53707 1.03608 A 
110 1 2.17887 2.49547 2.14324 A 
ITEM: TIMESTEP
3000
ITEM: NUMBER OF ATOMS
110
ITEM: BOX BOUNDS pp pp pp
-2.5807 2.5807
-2.5807 2.5807
-2.5807 2.5807
ITEM: ATOMS id type x y z element 
1 1 0.639569 1.06107 -0.280801 A 
2 1 0.191319 -2.23742 -0.176879 A 
3 1 -0.917353 1.92934 -1.00291 A 
4 1 1.3332 -1.84558 -0.865306 A 
5 1 2.11309 1.16679 1.20147 A 
6 1 -1.77603 1.2189 -0.563539 A 
7 1 -1.48382 -1.42124 -2.18348 A 
8 1 2.43902 -2.20999 -1.04286 A 
9 1 -1.35713 0.353976 -2.39824 A 
10 1 -2.47692 -0.35818 -2.42063 A 
11 1 0.735845 -0.885086 0.404689 A 
12 1 2.07591 -1.16036 -0.676162 A 
13 1 2.52128 0.672308 -0.356148 A 
14 1 2.17996 1.75625 -0.349558 A 
15 1 -1.1564 -1.26771 1.14458 A 
16 1 0.0556513 -2.40514 1.87176 A 
17 1 -2.39519 1.31119 0.443808 A 
18 1 1.42949 1.2631 2.32799 A 
19 1 -0.0556812 -1.7568 -1.21838 A 
20 1 0.639426 -0.379177 -2.34145 A 
21 1 -1.32438 1.23565 -1.7814 A 
22 1 -1.72853 -1.9482 0.571784 A 
23 1 -1.06484 1.23828 0.283313 A 
24 1 0.506479 1.96372 -2.53285 A 
25 1 1.72408 0.418613 1.82771 A 
26 1 0.869783 -1.21798 -1.84991 A 
27 1 1.60376 1.0238 0.191579 A 
28 1 -0.0319774 1.18473 0.567212 A 
29 1 0.786196 -0.344574 1.27198 A 
30 1 1.07384 0.16822 -1.49946 A 
31 1 -0.85978 -2.22456 -0.593648 A 
32 1 -0.594903 1.51569 1.66098 A 
33 1 -0.114715 2.35883 0.840699 A 
34 1 -0.201577 0.209962 1.57826 A 
35 1 -1.54943 0.244068 -0.914225 A 
36 1 1.91362 -1.946 -1.87725 A 
37 1 -1.36982 -0.601184 2.42151 A 
38 1 -0.885956 -2.15944 2.49734 A 
39 1 -1.26607 2.21745 0.216207 A 
40 1 -0.759944 0.945609 -0.743381 A 
41 1 -1.01042 -2.31603 -1.5869 A 
42 1 -0.363477 -0.673404 0.627244 A 
43 1 0.908382 1.97961 -0.65314 A 
44 1 -2.14429 -0.974202 0.718607 A 
45 1 -0.679843 -1.90305 0.383537 A 
46 1 -0.439212 -1.3097 -2.10283 A 
47 1 2.03246 -0.477904 1.91828 A 
48 1 -1.1624 0.0889025 1.04039 A 
49 1 2.01707 -0.989204 0.612811 A 
50 1 -2.48672 0.209852 0.969265 A 
51 1 0.320493 -1.42448 2.35196 A 
52 1 1.85127 2.28848 1.47878 A 
53 1 1.93998 -0.735214 -1.60682 A 
54 1 0.916702 1.81741 1.46516 A 
55 1 -0.730732 0.30168 -1.57295 A 
56 1 1.94951 2.16536 -1.51602 A 
57 1 1.32797 0.2325 -0.442695 A 
58 1 -1.42037 -0.525746 -1.68487 A 
59 1 0.188555 0.63597 -1.95718 A 
60 1 -1.7273 0.384932 0.186384 A 
61 1 2.51652 -1.53565 1.42324 A 
62 1 -1.47018 1.05553 1.71078 A 
63 1 -2.20539 -1.13039 -1.51334 A 
64 1 -2.062 -0.555958 -0.380431 A 
65 1 -2.16892 2.56963 -0.306987 A 
66 1 -0.43126 -0.130581 -2.47649 A 
67 1 2.27672 -0.217552 0.0309689 A 
68 1 0.642897 0.627913 2.03561 A 
69 1 -1.28579 1.98914 -2.5093 A 
70 1 -0.463516 0.981278 2.59744 A 
71 1 -1.94118 -2.34177 -2.09564 A 
72 1 -0.225635 -1.10752 -0.276884 A 
73 1 2.51441 1.33116 -2.31953 A 
74 1 -0.181984 1.89588 -0.330087 A 
75 1 0.293617 -1.76368 1.13192 A 
76 1 -0.150914 1.50575 -1.70854 A 
77 1 1.25281 -1.35401 1.44202 A 
78 1 0.161559 0.406927 -0.949227 A 
79 1 -0.950327 -2.25255 1.38571 A 
80 1 -1.04719 -1.2857 -1.1058 A 
81 1 -0.04794 -2.42348 -2.09674 A 
82 1 1.13604 -2.30453 0.854101 A 
83 1 -2.15763 2.19979 -1.27149 A 
84 1 1.81168 0.882575 -1.02669 A 
85 1 -2.56608 1.8397 1.88569 A 
86 1 1.24273 -2.07221 2.29236 A 
87 1 0.270222 0.0867824 0.0806709 A 
88 1 0.971653 1.5216 -1.54982 A 
89 1 2.4118 -1.80867 0.228273 A 
90 1 1.76439 -2.49744 -0.152692 A 
91 1 -0.191035 -0.62347 -1.36366 A 
92 1 -0.397852 -1.14358 1.85702 A 
93 1 0.822798 0.857518 1.05799 A 
94 1 1.5973 0.0815733 0.724964 A 
95 1 1.06273 1.98768 0.362175 A 
96 1 1.48006 -1.04067 2.56279 A 
97 1 -2.08164 -0.491031 1.67618 A 
98 1 -2.40944 0.616276 1.96117 A 
99 1 0.877588 -0.879445 -0.630931 A 
100 1 -0.8034 -0.203172 -0.458843 A 
101 1 -2.5593 0.181532 -1.40974 A 
102 1 -1.78181 -1.75623 -0.628103 A 
103 1 -1.76603 -1.54788 1.98557 A 
104 1 0.870606 -2.49757 -1.64953 A 
105 1 -2.64979 -1.46407 -2.53468 A 
106 1 -1.60391 1.8911 1.11708 A 
107 1 -1.79093 2.55081 1.88971 A 
108 1 1.73624 0.342392 -2.22102 A 
109 1 -2.36397 2.53763 0.911694 A 
110 1 2.18958 -2.49834 2.37326 A 
ITEM: TIMESTEP
4000
ITEM: NUMBER OF ATOMS
110
ITEM: BOX BOUNDS pp pp pp
-2.5807 2.5807
-2.5807 2.5807
-2.5807 2.5807
ITEM: ATOMS id type x y z element 
1 1 -0.000988806 1.19671 -0.732466 A 
2 1 0.875357 -2.49443 -0.386156 A 
3 1 -1.48974 -2.57753 -0.720805 A 
4 1 1.39822 -2.48089 -1.3241 A 
5 1 1.59648 1.34451 0.337434 A 
6 1 -1.43682 1.49724 -0.41559 A 
7 1 -1.33931 -1.19433 -2.33558 A 
8 1 2.30115 2.51155 -0.830448 A 
9 1 -1.69058 0.881213 -2.0222 A 
10 1 -2.44296 -0.779582 -2.40336 A 
11 1 0.898661 -0.924059 0.530807 A 
12 1 2.43868 -1.63301 -0.388088 A 
13 1 2.50592 0.627449 -0.131149 A 
14 1 -2.52002 1.65609 -0.159639 A 
15 1 -1.38029 -0.805947 1.1231 A 
16 1 0.00812013 -2.35797 1.99058 A 
17 1 -1.81976 1.19749 0.590607 A 
18 1 1.14309 1.59415 1.79339 A 
19 1 0.169211 -1.74491 -1.23372 A 
20 1 0.976675 -0.306775 -2.20669 A 
21 1 -1.00885 1.75602 -1.46198 A 
22 1 -1.70745 -2.3878 1.06536 A 
23 1 -0.364943 0.966331 1.35696 A 
24 1 0.124645 1.67298 2.16701 A 
25 1 1.58906 0.312749 2.33913 A 
26 1 0.833297 -1.31577 -1.94358 A 
27 1 0.600399 0.736434 0.233973 A 
28 1 -0.0645683 1.60301 0.577896 A 
29 1 0.673729 -0.326114 1.67228 A 
30 1 1.60744 0.641274 -1.59096 A 
31 1 -1.05857 -2.19292 0.0995937 A 
32 1 -0.549584 1.99074 1.50446 A 
33 1 -0.166239 -2.57721 0.656571 A 
34 1 -0.497025 -0.0852997 1.91469 A 
35 1 -1.46642 0.533648 -0.955828 A 
36 1 2.24749 -2.52301 -1.96859 A 
37 1 -1.56903 -0.179649 2.47805 A 
38 1 -1.09117 -2.14599 2.49729 A 
39 1 -1.01042 1.86326 0.388732 A 
40 1 -0.730353 0.720614 0.387922 A 
41 1 -0.808229 -2.16658 -1.57468 A 
42 1 0.148296 -0.0493251 0.866852 A 
43 1 1.71428 1.18658 -0.625232 A 
44 1 -2.20979 -1.16945 0.506207 A 
45 1 -0.631655 -1.46251 0.593128 A 
46 1 -0.261869 -1.45651 -2.22859 A 
47 1 1.73559 -0.895113 2.32544 A 
48 1 -1.53735 0.190447 1.22109 A 
49 1 1.77926 -1.04973 1.30631 A 
50 1 -2.57292 0.108991 0.814928 A 
51 1 0.591323 -1.19633 2.25174 A 
52 1 1.56914 2.49301 1.06631 A 
53 1 2.00129 -0.246254 -1.92023 A 
54 1 0.551457 2.33925 1.31344 A 
55 1 -0.479839 0.46351 -1.32248 A 
56 1 1.91195 1.77777 -1.61362 A 
57 1 1.45622 0.269022 -0.107124 A 
58 1 -1.56587 -0.394675 -1.71096 A 
59 1 0.398176 1.141 -1.953 A 
60 1 -1.76872 0.0605543 0.0306481 A 
61 1 2.45895 -1.96684 1.05207 A 
62 1 -1.45851 0.797411 2.10465 A 
63 1 2.47301 -1.2949 -1.34815 A 
64 1 -1.83942 -0.562347 -0.731843 A 
65 1 -2.18062 -2.45372 0.123937 A 
66 1 -0.580973 -0.26037 -2.24422 A 
67 1 1.68136 -0.769234 -0.155549 A 
68 1 0.443427 0.401678 2.40193 A 
69 1 -1.15407 1.92908 2.48152 A 
70 1 -0.624719 0.96671 -2.31355 A 
71 1 -1.97359 -2.17194 -1.72509 A 
72 1 0.529111 -0.696405 -0.579554 A 
73 1 -2.24063 1.86464 -2.12215 A 
74 1 -0.441201 2.22732 -0.764628 A 
75 1 0.195192 -1.11689 1.29463 A 
76 1 -0.09265 2.15054 -2.1036 A 
77 1 0.977894 -1.81461 1.56789 A 
78 1 0.621533 0.25975 -1.10946 A 
79 1 -0.738804 -2.03775 1.41601 A 
80 1 -0.652637 -1.18395 -0.696542 A 
81 1 0.64053 -2.31388 -2.09293 A 
82 1 0.540796 -1.90806 0.562924 A 
83 1 -2.13465 1.92722 -1.1523 A 
84 1 -2.51484 1.00303 -1.28503 A 
85 1 -2.41964 1.22897 1.94032 A 
86 1 1.0449 2.54203 2.16561 A 
87 1 -0.137356 0.137011 -0.476494 A 
88 1 1.25278 1.66399 -2.35052 A 
89 1 1.66134 -1.74614 0.274255 A 
90 1 1.77465 2.45556 0.021834 A 
91 1 -0.0999565 -0.685781 -1.50059 A 
92 1 -0.728681 -1.1634 1.99572 A 
93 1 0.582982 0.918668 1.33288 A 
94 1 1.453 0.12674 1.11657 A 
95 1 0.821732 2.02829 0.432086 A 
96 1 1.60265 -1.91 -2.51592 A 
97 1 -2.31591 -0.702988 1.51544 A 
98 1 -2.4831 0.200678 1.99252 A 
99 1 1.43569 -0.555619 -1.09119 A 
100 1 -0.735753 -0.27861 0.565791 A 
101 1 2.37512 0.00328826 -0.9693 A 
102 1 -1.68745 -1.46742 -0.358785 A 
103 1 -1.69152 -1.51434 1.77368 A 
104 1 0.778865 1.75811 -1.2276 A 
105 1 -2.55373 -1.80376 2.175 A 
106 1 -1.51666 1.8539 1.31064 A 
107 1 -1.98066 2.51365 1.97117 A 
108 1 2.29996 1.05513 -2.3177 A 
109 1 2.56324 2.0208 0.95557 A 
110 1 2.16328 2.39221 2.07925 A 
ITEM: TIMESTEP
5000
ITEM: NUMBER OF ATOMS
110
ITEM: BOX BOUNDS pp pp pp
-2.5807 2.5807
-2.5807 2.5807
-2.5807 2.5807
ITEM: ATOMS id type x y z element 
1 1 -0.124309 1.48145 -0.794267 A 
2 1 1.17873 -1.83666 -0.0308534 A 
3 1 -1.72152 2.09795 -0.710347 A 
4 1 1.5741 -2.23786 -1.11018 A 
5 1 1.86407 1.31459 0.593415 A 
6 1 -1.25207 1.04478 -0.615046 A 
7 1 -1.33288 -1.26189 -2.05595 A 
8 1 -2.48108 -2.51643 -1.11874 A 
9 1 -1.75734 0.264102 -2.22457 A 
10 1 -2.53067 -0.707963 -2.48756 A 
11 1 0.816983 -0.54292 0.887034 A 
12 1 2.18745 -1.69483 -0.377928 A 
13 1 -2.53316 0.629502 -0.243554 A 
14 1 -2.30197 1.60758 -0.0540573 A 
15 1 -1.34698 -0.701831 1.31578 A 
16 1 0.289994 -1.97211 2.21422 A 
17 1 -1.56426 1.18735 0.532001 A 
18 1 2.20135 2.01834 2.49769 A 
19 1 0.26867 -2.35093 -0.780192 A 
20 1 0.306346 -0.0944024 -2.19633 A 
21 1 -0.995438 1.88028 -1.3963 A 
22 1 -1.70482 -2.4687 1.37547 A 
23 1 -0.525354 1.06632 1.11634 A 
24 1 0.585072 2.24148 2.52788 A 
25 1 1.27178 1.02523 -2.53019 A 
26 1 1.10572 -1.13104 -0.802965 A 
27 1 0.55452 1.24447 -0.0996018 A 
28 1 0.327191 1.63343 0.894402 A 
29 1 0.752864 0.105086 1.83836 A 
30 1 1.14256 1.12913 -1.46966 A 
31 1 -1.27268 -2.32618 0.466734 A 
32 1 -0.436149 2.21306 1.5046 A 
33 1 0.111253 2.48785 0.256766 A 
34 1 -0.601758 0.144934 1.50861 A 
35 1 -1.87384 0.393746 -1.04767 A 
36 1 -2.51484 -2.31656 -2.13984 A 
37 1 -1.51901 -0.63212 2.34787 A 
38 1 -0.430385 -2.47494 -2.51106 A 
39 1 -0.727556 1.87894 0.417169 A 
40 1 -0.539689 0.718192 0.0121946 A 
41 1 -1.21015 -2.29136 -1.78208 A 
42 1 0.261984 0.356921 0.809449 A 
43 1 1.50901 1.19114 -0.385623 A 
44 1 -1.80299 -1.4982 0.200821 A 
45 1 -0.554091 -1.06247 -0.194002 A 
46 1 -0.304915 -1.7924 -1.74087 A 
47 1 1.33443 -0.692094 -2.19697 A 
48 1 -1.96384 0.249691 0.945365 A 
49 1 2.01947 -0.522299 1.26029 A 
50 1 -2.4195 -0.634274 0.452996 A 
51 1 0.408838 -1.15309 -2.17515 A 
52 1 1.64365 2.08746 1.36229 A 
53 1 1.93536 0.0699676 -1.95014 A 
54 1 0.820155 -2.47856 1.13716 A 
55 1 -0.901689 0.788985 -1.67319 A 
56 1 1.95303 1.80939 -1.12947 A 
57 1 1.33256 -0.0199847 -0.260964 A 
58 1 -1.95075 -0.529232 -1.49192 A 
59 1 0.0296181 0.993906 -2.09221 A 
60 1 -1.44842 0.279842 0.0034103 A 
61 1 2.24492 -2.31452 0.792823 A 
62 1 -1.46449 0.460318 1.92322 A 
63 1 2.04959 -0.704654 -1.32344 A 
64 1 -1.73187 -0.652655 -0.345987 A 
65 1 -2.2014 -2.51666 0.0776494 A 
66 1 -0.707969 -0.210294 -1.62373 A 
67 1 1.69423 -0.941341 0.330485 A 
68 1 0.351334 1.06218 2.02562 A 
69 1 -0.679351 1.63429 2.52223 A 
70 1 -0.600973 0.18463 2.48126 A 
71 1 -2.22514 -1.46439 -1.12551 A 
72 1 0.531925 -0.721293 -0.145054 A 
73 1 -1.67434 1.57268 -2.38483 A 
74 1 -0.665532 2.3063 -0.571181 A 
75 1 -0.171219 -0.799927 1.28086 A 
76 1 -0.133099 2.21198 -1.68116 A 
77 1 0.674272 -1.10992 1.77166 A 
78 1 0.450489 0.389415 -0.664912 A 
79 1 -0.547701 -1.91171 1.18095 A 
80 1 -0.946448 -1.12378 -1.12222 A 
81 1 0.779737 -2.01827 -1.75762 A 
82 1 0.268987 -1.59882 0.590563 A 
83 1 -2.23395 1.38293 -1.23995 A 
84 1 2.03938 0.782385 -1.18368 A 
85 1 2.40699 1.10726 1.68292 A 
86 1 1.39375 -2.3196 2.27124 A 
87 1 -0.494288 -0.0190472 -0.646889 A 
88 1 1.56514 2.46346 -1.98368 A 
89 1 1.46104 -1.49038 1.13864 A 
90 1 1.9926 2.17761 -0.225987 A 
91 1 0.127414 -0.785032 -1.24346 A 
92 1 -0.946503 -1.4249 2.03848 A 
93 1 1.13289 1.00681 1.23064 A 
94 1 1.9933 0.23973 0.553577 A 
95 1 1.19169 2.1367 0.339077 A 
96 1 1.75227 -1.68253 -2.05337 A 
97 1 -2.52239 -1.31803 1.33765 A 
98 1 2.52143 0.250389 2.11674 A 
99 1 1.03469 -0.0472298 -1.35159 A 
100 1 -0.707696 -0.126772 0.493787 A 
101 1 2.28939 -0.352653 -0.413465 A 
102 1 -1.37423 -2.00257 -0.682671 A 
103 1 -1.86392 -1.70195 2.2686 A 
104 1 0.794188 2.16411 -1.34171 A 
105 1 1.71072 -0.98317 2.14154 A 
106 1 -1.38 1.59499 1.56717 A 
107 1 -1.50216 2.54394 2.37439 A 
108 1 2.47251 1.05286 -2.28966 A 
109 1 -2.46575 1.95965 1.22169 A 
110 1 2.5532 -2.31569 1.8527 A 
ITEM: TIMESTEP
6000
ITEM: NUMBER OF ATOMS
110
ITEM: BOX BOUNDS pp pp pp
-2.5807 2.5807
-2.5807 2.5807
-2.5807 2.5807
ITEM: ATOMS id type x y z element 
1 1 -0.0967256 1.04866 -0.767242 A 
2 1 1.78017 -1.76315 -0.45613 A 
3 1 -1.73105 2.32555 -0.0223185 A 
4 1 1.13973 -2.46782 -0.918145 A 
5 1 1.2408 1.80385 0.62992 A 
6 1 -1.28464 1.13486 -0.32687 A 
7 1 -1.38851 -1.38593 -1.9095 A 
8 1 2.14803 -2.57288 -1.24312 A 
9 1 -1.93758 0.21789 -2.28976 A 
10 1 -2.49601 -0.765036 -2.42943 A 
11 1 0.976827 -0.64662 1.62423 A 
12 1 2.50239 -1.42276 0.327746 A 
13 1 2.28247 0.215149 0.0446595 A 
14 1 2.51022 1.50652 0.190452 A 
15 1 -0.983479 -1.13656 1.41788 A 
16 1 0.381007 -1.43189 1.9421 A 
17 1 -1.32467 1.09161 0.652105 A 
18 1 -2.09106 1.70366 2.35243 A 
19 1 0.462291 -1.81388 -0.198661 A 
20 1 0.0945465 0.420332 -2.03683 A 
21 1 -1.07128 1.59374 -1.2624 A 
22 1 -0.836147 -2.15171 1.68315 A 
23 1 -0.311179 1.12976 1.10434 A 
24 1 0.458761 1.96404 2.32823 A 
25 1 1.01178 0.949708 2.42385 A 
26 1 0.997843 -1.35891 -1.12357 A 
27 1 0.506597 1.03117 0.441085 A 
28 1 0.866015 1.45041 1.54227 A 
29 1 1.2551 -0.130841 2.45319 A 
30 1 1.09558 0.940662 -1.6214 A 
31 1 -0.946586 -2.16287 0.158736 A 
32 1 -0.0713692 2.19721 1.27496 A 
33 1 0.0408594 1.88802 0.193653 A 
34 1 -0.342484 -0.406538 1.85835 A 
35 1 -1.87146 0.68602 -1.05971 A 
36 1 2.52074 2.47261 -2.2629 A 
37 1 -1.80425 -0.50828 1.98059 A 
38 1 -0.278664 -2.41326 -2.28829 A 
39 1 -1.2455 2.21783 0.82143 A 
40 1 -0.507202 0.587573 0.213194 A 
41 1 -1.67652 -2.28276 -1.58037 A 
42 1 0.0674257 -0.00104609 0.940421 A 
43 1 1.60463 1.02422 0.126341 A 
44 1 -1.58704 -1.16169 0.483731 A 
45 1 -0.45157 -1.14745 -0.0152588 A 
46 1 -0.935457 -2.0444 -0.902262 A 
47 1 1.20916 -1.24286 2.51705 A 
48 1 -2.56236 0.632964 1.03452 A 
49 1 2.01535 -0.585336 1.86617 A 
50 1 -2.1521 -0.256136 0.91632 A 
51 1 -0.235827 -1.55311 -1.63065 A 
52 1 1.8772 2.2634 2.04472 A 
53 1 2.30767 0.217835 2.45407 A 
54 1 1.05783 -2.38239 1.11401 A 
55 1 -0.806729 0.629827 -1.61651 A 
56 1 1.88436 1.51255 -0.866794 A 
57 1 1.47727 -0.715682 -0.357358 A 
58 1 -2.06388 -0.35761 -1.43002 A 
59 1 0.160111 1.59502 -1.84498 A 
60 1 -1.89853 0.417868 0.0148754 A 
61 1 2.14207 2.51415 0.909156 A 
62 1 -1.08683 0.66125 1.5597 A 
63 1 1.73966 -0.750259 -1.9957 A 
64 1 -2.23102 -0.599946 -0.221355 A 
65 1 -1.89384 -2.10553 0.68825 A 
66 1 -0.845252 -0.33519 -1.90301 A 
67 1 1.9512 -0.653539 0.836364 A 
68 1 0.213743 0.43727 1.94728 A 
69 1 -0.682252 1.54563 -2.41206 A 
70 1 -0.710752 0.28571 2.44117 A 
71 1 -2.42643 -1.64756 -1.85705 A 
72 1 0.45508 -0.548578 0.0418671 A 
73 1 -1.67227 1.18615 -1.93156 A 
74 1 -0.816198 2.1273 -0.358395 A 
75 1 0.147 -1.03277 0.990139 A 
76 1 0.0269431 2.54783 -1.27522 A 
77 1 0.193882 -0.654827 -2.39409 A 
78 1 0.965113 0.457141 -0.695215 A 
79 1 -0.135546 -2.02211 0.82739 A 
80 1 -1.14004 -0.990716 -0.868574 A 
81 1 0.640731 -1.73351 -2.08081 A 
82 1 1.01742 -1.4044 0.590665 A 
83 1 -2.0746 1.94811 -0.928412 A 
84 1 2.00567 0.241094 -1.14617 A 
85 1 2.08295 1.26084 2.03807 A 
86 1 1.01916 -2.31268 2.29 A 
87 1 -0.952141 0.137806 -0.619852 A 
88 1 1.24009 2.1398 -2.1822 A 
89 1 1.6162 -1.56641 1.38537 A 
90 1 2.47736 2.58827 -0.208642 A 
91 1 0.033076 -0.661288 -0.994205 A 
92 1 -0.745464 -1.26149 2.43919 A 
93 1 1.45934 0.437026 1.46759 A 
94 1 1.12436 0.0541595 0.588421 A 
95 1 1.43652 -2.43332 0.187527 A 
96 1 1.73207 -1.91124 -1.81381 A 
97 1 -2.123 -1.48497 1.49865 A 
98 1 -2.10321 0.75232 1.93784 A 
99 1 0.888037 -0.305119 -1.26767 A 
100 1 -0.845037 -0.342303 0.532549 A 
101 1 2.36216 -1.14146 -1.02844 A 
102 1 -1.92576 -1.70357 -0.504318 A 
103 1 -1.73148 -1.77655 2.37117 A 
104 1 0.82791 1.80105 -0.661369 A 
105 1 2.22815 -1.8832 2.23091 A 
106 1 -1.25863 1.99607 1.74763 A 
107 1 -1.32528 2.54222 -2.49308 A 
108 1 2.28492 1.01935 -2.08006 A 
109 1 -2.19241 1.56567 1.32497 A 
110 1 -2.24966 2.57948 1.72328 A 
ITEM: TIMESTEP
7000
ITEM: NUMBER OF ATOMS
110
ITEM: BOX BOUNDS pp pp pp
-2.5807 2.5807
-2.5807 2.5807
-2.5807 2.5807
ITEM: ATOMS id type x y z element 
1 1 -0.394087 1.01298 -0.544993 A 
2 1 1.92161 -1.81456 -0.846488 A 
3 1 -1.44833 1.94294 0.189184 A 
4 1 0.968297 -1.62674 -0.730507 A 
5 1 1.14867 1.73587 1.1657 A 
6 1 -1.25542 1.46401 -0.665392 A 
7 1 -1.40125 -1.95163 -1.62022 A 
8 1 2.32877 2.43147 -0.719478 A 
9 1 -2.46661 0.342934 -2.13105 A 
10 1 -2.00189 -0.744308 -1.95366 A 
11 1 0.282447 -1.11812 1.55236 A 
12 1 2.15394 -1.73412 0.215392 A 
13 1 2.29953 0.0943709 -0.183395 A 
14 1 -2.49304 1.74476 0.376721 A 
15 1 -0.857381 -1.19188 1.7614 A 
16 1 0.214079 -2.0161 2.19252 A 
17 1 -1.35382 0.98717 0.85427 A 
18 1 -2.2311 1.66845 2.55089 A 
19 1 0.419235 -0.878695 -0.392316 A 
20 1 0.00179126 0.50605 -1.91989 A 
21 1 -0.946368 2.28078 -1.35292 A 
22 1 -1.08197 -2.46406 1.89399 A 
23 1 0.21687 0.925278 1.36873 A 
24 1 -0.0407933 1.3488 2.21269 A 
25 1 0.890464 1.24066 -2.41108 A 
26 1 1.33061 -0.797141 -1.37997 A 
27 1 0.903694 0.534049 0.264839 A 
28 1 1.20661 0.749782 1.68716 A 
29 1 1.11836 -0.293672 2.17895 A 
30 1 1.24069 1.15255 -1.38821 A 
31 1 -1.02845 -2.12188 0.375409 A 
32 1 0.324718 2.09505 1.58135 A 
33 1 0.208057 1.63491 0.573911 A 
34 1 -0.352696 -0.274841 1.53708 A 
35 1 -1.97583 0.220688 -1.19413 A 
36 1 2.53786 2.33615 -1.73838 A 
37 1 -1.07929 -0.467526 2.54954 A 
38 1 -0.549055 -2.344 -2.21396 A 
39 1 -0.671456 1.78777 1.22645 A 
40 1 -0.340555 0.742583 0.552127 A 
41 1 -1.77804 2.45233 -0.774419 A 
42 1 0.617906 0.0676152 1.17438 A 
43 1 1.9075 0.939613 0.802507 A 
44 1 -1.4034 -1.25406 0.814708 A 
45 1 0.0666746 -1.95071 0.0237735 A 
46 1 -1.01894 -1.89188 -0.660368 A 
47 1 1.1646 -1.38297 2.20965 A 
48 1 -2.30164 0.524942 0.991476 A 
49 1 -2.35901 -0.426022 2.17722 A 
50 1 -1.72758 -0.319299 1.25454 A 
51 1 -0.392376 -1.05292 -1.08619 A 
52 1 1.95818 2.22918 2.55223 A 
53 1 2.07849 1.19979 2.52097 A 
54 1 1.52039 -2.54984 1.73188 A 
55 1 -0.885381 0.950805 -1.4549 A 
56 1 1.91254 1.14592 -0.431226 A 
57 1 1.67558 -0.889849 -0.299241 A 
58 1 -1.53752 -0.887876 -1.01888 A 
59 1 0.0165475 1.66568 -1.56307 A 
60 1 -2.02351 0.629228 -0.0323224 A 
61 1 1.61483 1.89385 0.226541 A 
62 1 -1.06321 0.520335 1.71936 A 
63 1 1.97806 -0.449256 -2.22615 A 
64 1 -1.96504 -0.512645 0.0665486 A 
65 1 -1.85276 -2.26541 1.11936 A 