ITEM: TIMESTEP
0
ITEM: NUMBER OF ATOMS
60
ITEM: BOX BOUNDS pp pp pp
-4.2172 4.2172
-4.2172 4.2172
-4.2172 4.2172
ITEM: ATOMS id type x y z element 
1 1 3.5528877e+000 2.8851056e+000 9.9153269e-001 A 
2 2 3.7153112e-001 3.7642294e+000 3.7870149e+000 B 
3 1 -6.9858630e-002 -4.1584111e+000 1.1454662e+000 A 
4 2 2.7572178e+000 1.9378600e+000 9.0182491e-001 B 
5 1 -3.8777225e+000 -4.1788192e+000 2.3381555e+000 A 
6 2 -1.8561043e+000 -4.2116698e+000 4.3790915e-001 B 
7 1 8.3559056e-001 -2.6889892e-001 -3.5097476e+000 A 
8 2 3.5502516e+000 -1.2756737e+000 -2.3568357e+000 B 
9 1 1.7373790e+000 2.9413362e+000 2.0908039e+000 A 
10 2 -2.0907682e+000 -2.9162136e+000 2.5660021e+000 B 
11 1 3.2677554e-001 -1.8253925e+000 -1.0830289e+000 A 
12 2 -2.5490604e+000 5.6320639e-002 1.8555728e+000 B 
13 1 -4.0887184e+000 3.0910401e-001 2.6147783e+000 A 
14 2 -4.4698409e-001 1.9975819e+000 9.8520571e-001 B 
15 1 8.7267818e-001 -1.6665539e+000 2.4422797e+000 A 
16 2 -3.1891282e+000 1.9219440e+000 1.5152340e+000 B 
17 1 -2.8125700e+000 1.3686256e+000 -2.1017952e+000 A 
18 2 -2.6928062e+000 7.1136863e-001 -3.8768613e+000 B 
19 1 1.3772489e+000 -8.6005179e-001 -1.4081946e+000 A 
20 2 -3.8223876e+000 -3.6768139e-002 -2.5663217e+000 B 
21 1 1.5067181e+000 -2.4508876e+000 2.2220568e+000 A 
22 2 2.8297876e-001 1.0183405e+000 6.0220920e-001 B 
23 1 -2.8936613e+000 -3.9507969e+000 2.7583698e+000 A 
24 2 -2.0629544e+000 2.9305444e+000 -1.1567796e+000 B 
25 1 7.6421853e-001 2.0119603e+000 -1.4441150e-001 A 
26 2 3.9406304e+000 1.6240665e+000 1.0900817e+000 B 
27 1 2.5638778e+000 -1.2155806e+000 -1.1357421e+000 A 
28 2 3.9346086e+000 -1.5442361e+000 8.1247419e-001 B 
29 1 2.8572340e+000 1.1706454e+000 2.6451723e-001 A 
30 2 -7.0813931e-002 -3.3534965e+000 1.3218450e-001 B 
31 1 -1.6454750e+000 8.3496797e-001 -3.7983621e+000 A 
32 2 -2.5657995e+000 -2.4200787e-001 -4.8819769e-001 B 
33 1 -8.8926486e-001 -2.2422197e+000 2.8112713e+000 A 
34 2 -1.7264637e+000 1.5947499e+000 -2.1165716e+000 B 
35 1 -1.0495075e+000 5.0245676e-001 8.9257839e-001 A 
36 2 -1.3937148e-001 -3.5408630e+000 3.6512667e+000 B 
37 1 -2.3255801e+000 1.1254604e+000 3.2441946e+000 A 
38 2 -2.6575977e+000 9.0323925e-001 -1.2048458e+000 B 
39 1 1.0026343e+000 9.3193393e-002 -1.8859253e+000 A 
40 2 4.1753906e-001 3.0022168e+000 6.9572130e-001 B 
41 1 -2.6846169e+000 -1.2694047e+000 -8.1323335e-001 A 
42 2 -3.4182842e+000 -1.9453018e+000 1.2958026e+000 B 
43 1 2.5868518e-001 3.9537846e+000 1.0180615e-001 A 
44 2 -1.0705647e+000 1.1663868e+000 1.8055733e+000 B 
45 1 4.0045748e+000 -4.8884873e-001 -1.6123071e+000 A 
46 2 2.8889716e+000 1.9112301e-001 -3.0893390e+000 B 
47 1 1.8759422e+000 3.2217432e+000 3.6244345e+000 A 
48 2 9.2094196e-001 -1.3406303e+000 -2.9400448e-001 B 
49 1 -6.7500510e-001 -4.0793825e+000 -2.7586370e+000 A 
50 2 -2.3843246e+000 3.1405686e+000 -2.7300378e+000 B 
51 1 -4.6147894e-001 -2.9296276e+000 -3.9358344e+000 A 
52 2 -3.1278845e+000 6.7591736e-001 1.1156871e-001 B 
53 1 1.2916727e+000 -3.1339076e+000 2.9193978e+000 A 
54 2 -5.2381273e-001 1.1110669e-001 -8.3302929e-001 B 
55 1 -1.4602260e-001 -7.2088342e-001 2.4805188e+000 A 
56 2 8.2975617e-001 -2.2806430e+000 -1.9312755e+000 B 
57 1 3.5367908e+000 1.4239796e-001 6.0401480e-001 A 
58 2 -2.0472134e+000 -9.0433233e-001 3.4143388e+000 B 
59 1 3.9918788e-001 -1.9436450e+000 6.7850734e-001 A 
60 2 2.4156626e+000 -3.2204607e+000 3.0143940e+000 B 
ITEM: TIMESTEP
1000
ITEM: NUMBER OF ATOMS
60
ITEM: BOX BOUNDS pp pp pp
-4.2172 4.2172
-4.2172 4.2172
-4.2172 4.2172
ITEM: ATOMS id type x y z element 
1 1 4.0725376e+000 3.1312889e+000 7.7998423e-001 A 
2 2 -5.1256677e-001 3.5877666e+000 4.0734792e+000 B 
3 1 -2.6148145e-001 3.5886046e+000 1.4439995e+000 A 
4 2 2.8559834e+000 1.8125677e+000 1.2067366e+000 B 
5 1 -3.6154170e+000 -3.5909653e+000 2.4627875e+000 A 
6 2 -1.7301556e+000 4.0151506e+000 2.2997536e-001 B 
7 1 8.4101839e-001 -3.0512919e-001 -4.0956031e+000 A 
8 2 3.3377063e+000 -1.3125359e+000 -2.5379677e+000 B 
9 1 2.1319066e+000 3.1930031e+000 1.6548978e+000 A 
10 2 -2.1173332e+000 -2.3781960e+000 2.0599185e+000 B 
11 1 1.1946725e+000 -1.2830946e+000 -1.6216166e+000 A 
12 2 -2.3326208e+000 7.8547753e-001 9.6341923e-001 B 
13 1 -3.3182660e+000 6.2145607e-001 3.1581196e+000 A 
14 2 3.2512438e-001 2.7406752e+000 1.0841881e+000 B 
15 1 1.0194495e+000 -1.5998894e+000 2.2407644e+000 A 
16 2 -2.6826893e+000 2.1269522e+000 2.3159159e+000 B 
17 1 -3.6280775e+000 8.8954053e-001 -2.1960394e+000 A 
18 2 -2.8808263e+000 1.3852901e+000 -3.1758036e+000 B 
19 1 1.2724496e+000 -6.7761317e-001 -7.7654456e-001 A 
20 2 -3.3484880e+000 -4.0338666e-001 -2.6818428e+000 B 
21 1 2.4163696e+000 -2.1288438e+000 1.5476708e+000 A 
22 2 6.7144709e-001 9.7394515e-001 9.3696124e-001 B 
23 1 -2.5623046e+000 -3.4783358e+000 2.7200644e+000 A 
24 2 -2.5453854e+000 2.6825417e+000 -1.3979855e+000 B 
25 1 2.4638285e-001 1.9192240e+000 3.5503042e-001 A 
26 2 3.5127349e+000 1.4731779e+000 2.0469090e+000 B 
27 1 3.0331790e+000 -6.3638981e-001 -1.2075500e+000 A 
28 2 -3.9151252e+000 -6.8363944e-001 1.0270573e+000 B 
29 1 3.0324591e+000 6.0274863e-002 -5.3498494e-001 A 
30 2 -8.3832210e-001 -3.8842979e+000 5.8018028e-001 B 
31 1 -2.0778134e+000 5.9684508e-001 -3.3422281e+000 A 
32 2 -2.2754817e+000 5.3812865e-001 -7.9344076e-001 B 
33 1 -1.2122949e+000 -1.6014979e+000 2.0926006e+000 A 
34 2 -1.1439986e+000 4.9756202e-001 -7.9699719e-001 B 
35 1 -1.1874721e+000 6.8959671e-001 1.9464888e-001 A 
36 2 7.5700699e-002 -3.7497354e+000 -4.1480265e+000 B 
37 1 -1.8845024e+000 5.0060669e-001 3.3242602e+000 A 
38 2 -4.1291841e+000 7.2400863e-001 -1.2805695e+000 B 
39 1 1.6481149e+000 -4.1860739e-001 -1.9394559e+000 A 
40 2 1.3171718e+000 2.6248094e+000 1.0253474e+000 B 
41 1 -2.6450609e+000 -1.4130183e+000 -3.3961024e-001 A 
42 2 -2.7520693e+000 -1.3906505e+000 1.5934416e+000 B 
43 1 8.7633444e-001 3.9060591e+000 3.6545898e-001 A 
44 2 3.5231584e-001 1.5147610e+000 1.7908449e+000 B 
45 1 4.1577329e+000 -3.0278687e-001 -1.6423359e+000 A 
46 2 2.0875973e+000 4.9429924e-001 -3.2052176e+000 B 
47 1 2.2108217e+000 3.7390116e+000 4.1922119e+000 A 
48 2 8.0617326e-002 -1.4188908e+000 -9.2045598e-001 B 
49 1 -6.5500774e-001 3.6799741e+000 -2.3652274e+000 A 
50 2 -1.6225925e+000 3.0115967e+000 -2.1471422e+000 B 
51 1 -1.1214724e+000 -3.5855033e+000 -3.4864994e+000 A 
52 2 -3.2743113e+000 7.8749381e-001 -3.9407892e-001 B 
53 1 1.1362644e+000 -3.9273193e+000 2.9455165e+000 A 
54 2 3.0363159e-001 -4.2593614e-001 -6.2307548e-002 B 
55 1 -2.1390488e-001 -1.6853274e+000 3.3824871e+000 A 
56 2 8.0255303e-001 -2.0054593e+000 -2.1211382e+000 B 
57 1 2.6107759e+000 4.2194320e-002 7.2064533e-001 A 
58 2 -1.0607178e+000 2.4524983e-002 4.1735811e+000 B 
59 1 -2.1833988e-001 -2.8572596e+000 2.8047142e-001 A 
60 2 2.2977029e+000 -2.8256967e+000 2.8256542e+000 B 
ITEM: TIMESTEP
2000
ITEM: NUMBER OF ATOMS
60
ITEM: BOX BOUNDS pp pp pp
-4.2172 4.2172
-4.2172 4.2172
-4.2172 4.2172
ITEM: ATOMS id type x y z element 
1 1 4.0534815e+000 3.4319685e+000 9.2563179e-001 A 
2 2 1.4654152e-001 2.7924508e+000 4.0209068e+000 B 
3 1 -1.0226083e-001 4.0308605e+000 1.0492186e+000 A 
4 2 3.2510738e+000 1.8286995e+000 1.3089633e+000 B 
5 1 -3.9596740e+000 -3.6300287e+000 2.7026796e+000 A 
6 2 -1.9464620e+000 3.2690281e+000 -8.1133037e-001 B 
7 1 1.1070233e+000 -5.6581697e-001 -4.0292326e+000 A 
8 2 3.0705299e+000 -1.1967122e+000 -3.2565502e+000 B 
9 1 2.7473937e+000 2.9052582e+000 1.7632421e+000 A 
10 2 -1.4032831e+000 -1.9681337e+000 2.0641755e+000 B 
11 1 1.4969110e+000 -1.0166479e+000 -1.2590809e+000 A 
12 2 -2.3031436e+000 5.8745179e-001 7.6213992e-001 B 
13 1 -3.0303113e+000 1.2809961e+000 3.1610739e+000 A 
14 2 1.5989062e+000 -4.0806895e+000 1.4022332e+000 B 
15 1 4.8121336e-001 -2.0399456e+000 3.2070364e+000 A 
16 2 -2.9134767e+000 1.9350298e+000 2.4843380e+000 B 
17 1 4.0748777e+000 1.2988507e+000 -1.8565112e+000 A 
18 2 -3.3155398e+000 9.3626203e-001 -2.3614668e+000 B 
19 1 9.5140025e-001 -1.3165696e-001 -5.6684772e-001 A 
20 2 -4.0667182e+000 -7.8549862e-002 -2.6786017e+000 B 
21 1 1.9663352e+000 -2.1174391e+000 1.1446354e+000 A 
22 2 1.1750487e+000 8.0715017e-001 2.3483574e-001 B 
23 1 -2.0818854e+000 -2.9762042e+000 2.6639485e+000 A 
24 2 -2.7428508e+000 2.6529345e+000 -1.2377684e+000 B 
25 1 2.1092741e-001 1.6139403e+000 5.7922694e-002 A 
26 2 -3.8299032e+000 1.7599981e+000 1.3520574e+000 B 
27 1 2.8896345e+000 -1.2811840e+000 -9.8123796e-001 A 
28 2 3.9311483e+000 -5.2417485e-001 2.1434316e+000 B 
29 1 3.2993546e+000 -3.7950634e-001 4.0895370e-001 A 
30 2 -1.3005751e+000 3.5442577e+000 3.7349197e-001 B 
31 1 -2.6144059e+000 1.0084889e-001 -3.0741928e+000 A 
32 2 -2.0571807e+000 8.7627408e-001 -3.8489677e-001 B 
33 1 -1.2228908e+000 -6.7449716e-001 2.0891273e+000 A 
34 2 -8.7002370e-001 9.4299951e-001 -1.7685220e+000 B 
35 1 -6.6670783e-001 5.3162244e-001 -1.5477465e-001 A 
36 2 -6.0465527e-001 -3.9866494e+000 -3.6127906e+000 B 
37 1 -2.5087602e+000 1.8629175e-001 3.9404275e+000 A 
38 2 -4.1931743e+000 4.3448786e-001 -3.2778531e-002 B 
39 1 2.2468821e+000 1.5022718e-002 -1.3625476e+000 A 
40 2 1.7754886e+000 1.3616951e+000 9.7233273e-001 B 
41 1 -3.8092756e+000 -1.9184036e+000 4.4995634e-001 A 
42 2 -2.7131361e+000 -6.3701226e-001 2.1936629e+000 B 
43 1 5.8764093e-001 -3.9247265e+000 5.1561827e-001 A 
44 2 5.9929625e-001 2.0449745e+000 1.4132081e+000 B 
45 1 3.5943434e+000 -8.5734045e-001 -1.8136470e+000 A 
46 2 1.9540630e+000 6.6559099e-001 3.8103245e+000 B 
47 1 1.9049466e+000 3.1661816e+000 3.9285071e+000 A 
48 2 -4.7124230e-001 -2.3613543e+000 -3.6244029e-001 B 
49 1 -3.5657699e-001 3.5546588e+000 -2.0113641e+000 A 
50 2 -1.1064169e+000 2.8328489e+000 -2.2444159e+000 B 
51 1 -1.7600472e+000 -3.4137032e+000 -3.6590150e+000 A 
52 2 -3.3530399e+000 1.3310005e+000 -1.3165415e-001 B 
53 1 1.4429344e+000 -3.9868913e+000 2.8320937e+000 A 
54 2 3.1702725e-001 -7.0762371e-001 7.9390406e-001 B 
55 1 -3.4455127e-001 -1.4390435e+000 2.4392351e+000 A 
56 2 -2.0881629e-002 -1.9276832e+000 -2.2797916e+000 B 
57 1 2.9067390e+000 8.8023943e-001 4.2883159e-001 A 
58 2 -2.2528469e-001 -8.0580918e-001 3.7725751e+000 B 
59 1 -6.1902534e-001 -3.0658195e+000 7.0346830e-001 A 
60 2 2.8574394e+000 -2.5523179e+000 2.7506048e+000 B 
ITEM: TIMESTEP
3000
ITEM: NUMBER OF ATOMS
60
ITEM: BOX BOUNDS pp pp pp
-4.2172 4.2172
-4.2172 4.2172
-4.2172 4.2172
ITEM: ATOMS id type x y z element 
1 1 4.0623569e+000 -3.4622910e+000 5.5851109e-001 A 
2 2 8.2987912e-002 2.5134604e+000 -3.0487188e+000 B 
3 1 -8.8525620e-001 3.7082076e+000 1.4830769e+000 A 
4 2 3.2885280e+000 2.5171151e+000 1.3829394e+000 B 
5 1 -4.1428442e+000 -3.8005510e+000 2.1581832e+000 A 
6 2 -1.8708001e+000 2.3463548e+000 -1.6302188e+000 B 
7 1 5.4880665e-001 -2.9977617e-001 4.0802007e+000 A 
8 2 3.2068234e+000 -1.2021026e+000 -3.8300295e+000 B 
9 1 2.6014962e+000 3.9431841e+000 2.3943885e+000 A 
10 2 7.5108068e-002 -1.8408606e+000 1.4220002e+000 B 
11 1 1.2891530e+000 -1.3589555e+000 -1.5628634e+000 A 
12 2 -1.9260757e+000 2.0413979e-001 -3.0455861e-001 B 
13 1 -3.1291552e+000 1.3697753e+000 3.4358820e+000 A 
14 2 1.8797303e+000 -3.9733705e+000 1.7635900e+000 B 
15 1 1.0727839e+000 -2.0576089e+000 3.6874337e+000 A 
16 2 -3.4617009e+000 2.4458777e+000 2.0059601e+000 B 
17 1 3.3728724e+000 1.5075880e+000 -2.3408554e+000 A 
18 2 -2.9422841e+000 6.7932447e-001 -2.7503742e+000 B 
19 1 7.2916172e-001 -7.6853271e-001 -5.9001043e-001 A 
20 2 4.0984003e+000 4.7583284e-001 -1.9067030e+000 B 
21 1 1.4178438e+000 -2.8444798e+000 1.3277304e+000 A 
22 2 9.4533425e-001 4.0388963e-001 9.3051818e-002 B 
23 1 -1.3735974e+000 -3.4396021e+000 3.0157335e+000 A 
24 2 -2.9511176e+000 2.3256949e+000 -6.8984757e-001 B 
25 1 7.1171722e-002 8.7203208e-001 -1.5062060e-001 A 
26 2 4.1514537e+000 2.1885373e+000 1.5172351e+000 B 
27 1 3.1122845e+000 -2.6600398e+000 -1.0222349e+000 A 
28 2 2.6605959e+000 -3.8352316e-001 1.7243246e+000 B 
29 1 3.6813320e+000 -6.7812796e-001 5.1664117e-001 A 
30 2 -9.3295679e-001 3.4888720e+000 1.3745641e-001 B 
31 1 -2.2623996e+000 -2.0633673e-001 -3.0703610e+000 A 
32 2 -2.9094308e+000 9.6922357e-001 1.2558904e-001 B 
33 1 -1.7087619e+000 -1.5518684e-001 1.7067048e+000 A 
34 2 -4.9631774e-001 9.7089474e-001 -1.0177312e+000 B 
35 1 -1.2231988e+000 9.9527598e-001 5.6735288e-001 A 
36 2 -7.2807744e-001 4.1725045e+000 -2.0208744e+000 B 
37 1 -3.3293196e+000 5.0679574e-001 -3.9552149e+000 A 
38 2 4.0053861e+000 1.3153750e+000 3.2362493e-001 B 
39 1 1.7364472e+000 -1.6060496e-001 -1.0049883e+000 A 
40 2 1.7115146e+000 1.8918631e+000 1.3884345e+000 B 
41 1 -3.9216043e+000 -2.7399651e+000 -3.4451070e-001 A 
42 2 -1.9744680e+000 -1.5285096e+000 1.6409577e+000 B 
43 1 5.6474676e-001 -3.4767767e+000 1.5414254e+000 A 
44 2 6.9454393e-001 2.6880867e+000 1.3205254e+000 B 
45 1 3.1651492e+000 -7.0045794e-001 -1.6699716e+000 A 
46 2 1.8703660e+000 -2.0304898e-001 4.1796503e+000 B 
47 1 1.4320674e+000 2.7679678e+000 4.0121938e+000 A 
48 2 -1.5586717e+000 -1.5478509e+000 -6.6111377e-001 B 
49 1 -1.0426969e-001 3.2877194e+000 -1.2466072e+000 A 
50 2 -6.8735953e-001 2.9739101e+000 -2.3065879e+000 B 
51 1 -2.0392204e+000 -3.7944186e+000 -3.5180237e+000 A 
52 2 -3.4673211e+000 1.2342352e+000 -8.0870632e-001 B 
53 1 1.4799940e+000 -3.7393098e+000 3.0449627e+000 A 
54 2 1.4283100e-001 -1.5491352e+000 3.8839091e-001 B 
55 1 -2.1929763e-001 -9.1432894e-001 2.9283387e+000 A 
56 2 1.0381233e+000 -2.8839931e+000 -3.4291553e+000 B 
57 1 2.8178421e+000 7.4601122e-002 4.2439996e-001 A 
58 2 -5.7655579e-001 -1.5884659e+000 3.8886172e+000 B 
59 1 9.8711835e-002 -3.0461863e+000 4.3170745e-001 A 
60 2 3.5817888e+000 -2.0158180e+000 3.0786391e+000 B 
ITEM: TIMESTEP
4000
ITEM: NUMBER OF ATOMS
60
ITEM: BOX BOUNDS pp pp pp
-4.2172 4.2172
-4.2172 4.2172
-4.2172 4.2172
ITEM: ATOMS id type x y z element 
1 1 -4.2111763e+000 -3.9752128e+000 6.4430105e-001 A 
2 2 1.1964719e-001 2.3003503e+000 -3.4431894e+000 B 
3 1 -4.8008701e-001 3.4806764e+000 1.1201139e+000 A 
4 2 2.0924316e+000 3.1788001e+000 1.6707055e+000 B 
5 1 -3.9723987e+000 -4.1708001e+000 2.0895954e+000 A 
6 2 -2.1733319e+000 2.8092125e+000 -2.0475634e+000 B 
7 1 1.3345277e+000 -5.3633198e-001 3.8998685e+000 A 
8 2 3.0951253e+000 -1.1279573e+000 -4.0417332e+000 B 
9 1 2.6893558e+000 3.0120167e+000 2.5673615e+000 A 
10 2 1.0552977e+000 -1.8919579e+000 1.7646118e+000 B 
11 1 1.9675861e+000 -1.4437133e+000 -2.0567217e+000 A 
12 2 -1.5855020e+000 1.3955912e+000 -7.6740230e-002 B 
13 1 -2.5569039e+000 3.6588171e-001 3.3676663e+000 A 
14 2 2.2468309e+000 4.0938993e+000 2.1089522e+000 B 
15 1 1.6116808e+000 -2.7354950e+000 3.7702526e+000 A 
16 2 -2.9002810e+000 2.9079698e+000 2.1149640e+000 B 
17 1 2.6759131e+000 1.4668605e+000 -2.7178056e+000 A 
18 2 -2.6629075e+000 6.9550659e-002 -2.5115977e+000 B 
19 1 5.1770692e-001 -3.2128729e-001 -1.3991786e-001 A 
20 2 4.2259363e+000 4.6420272e-001 -2.3617874e+000 B 
21 1 1.8263619e+000 -2.8231617e+000 7.5383131e-001 A 
22 2 2.9755298e+000 6.6822060e-001 -1.9842846e-001 B 
23 1 -5.3769888e-001 -3.4487480e+000 3.3056402e+000 A 
24 2 -2.9141041e+000 2.0918029e+000 -1.1701815e+000 B 
25 1 3.3351582e-001 2.3117241e-001 8.4883947e-001 A 
26 2 3.5261683e+000 2.0882165e+000 8.2986117e-001 B 
27 1 3.2720564e+000 -3.0957010e+000 6.6704463e-002 A 
28 2 2.0717034e+000 -1.8751649e-001 1.5923815e+000 B 
29 1 3.6682296e+000 -1.5635419e+000 2.9204857e-001 A 
30 2 -2.5751510e-001 3.1158849e+000 -1.3608316e+000 B 
31 1 -2.1480160e+000 -5.7667856e-001 -3.4218516e+000 A 
32 2 -3.1575699e+000 7.2219606e-001 -6.8244869e-001 B 
33 1 -2.1583788e+000 -3.9669926e-001 8.2707916e-001 A 
34 2 -8.5556684e-001 3.6551819e-001 -3.1051693e-001 B 
35 1 -6.3970427e-001 7.5565637e-001 1.3854739e+000 A 
36 2 -4.9509399e-001 -4.2187647e+000 -2.3863642e+000 B 
37 1 -4.1536281e+000 2.2785187e-001 -3.6707489e+000 A 
38 2 3.8969966e+000 6.8987189e-001 -2.3187786e-001 B 
39 1 1.3092292e+000 -3.8142933e-001 -1.0404222e+000 A 
40 2 1.2575085e+000 2.9738734e+000 9.0670021e-001 B 
41 1 -3.9073788e+000 -3.0273757e+000 -3.8363919e-002 A 
42 2 -1.3167609e+000 -1.9948656e+000 1.1403449e+000 B 
43 1 3.7395903e-001 -2.8129059e+000 2.3799618e+000 A 
44 2 8.2364280e-001 3.3272255e+000 1.9629806e+000 B 
45 1 3.1137877e+000 -1.1392327e+000 -2.2198711e+000 A 
46 2 2.0128050e+000 -8.9168435e-001 -3.7335010e+000 B 
47 1 9.4274330e-001 3.2519052e+000 3.9912090e+000 A 
48 2 -2.3765788e+000 -1.2118352e+000 1.9093233e-001 B 
49 1 3.3165582e-001 2.5276341e+000 -2.0585297e+000 A 
50 2 -1.2997248e+000 3.3378067e+000 -2.0062379e+000 B 
51 1 -1.4070824e+000 -4.1718551e+000 -3.8143625e+000 A 
52 2 4.1029051e+000 2.2736371e+000 -1.1776172e+000 B 
53 1 1.2101031e+000 -4.0501646e+000 2.8062732e+000 A 
54 2 -2.6033559e-001 -2.5203585e+000 -1.0461321e+000 B 
55 1 -2.4467187e-001 -1.3664284e+000 2.5217076e+000 A 
56 2 2.0204079e+000 -3.9877436e+000 -3.2129038e+000 B 
57 1 2.8600169e+000 4.2377430e-001 1.0466608e+000 A 
58 2 -1.1868989e+000 -1.9577957e+000 4.1127048e+000 B 
59 1 3.4949247e-001 -3.1816711e+000 -4.0922962e-001 A 
60 2 3.7884619e+000 -2.0139509e+000 3.3636516e+000 B 
ITEM: TIMESTEP
5000
ITEM: NUMBER OF ATOMS
60
ITEM: BOX BOUNDS pp pp pp
-4.2172 4.2172
-4.2172 4.2172
-4.2172 4.2172
ITEM: ATOMS id type x y z element 
1 1 3.7452168e+000 -3.9274926e+000 6.3092856e-001 A 
2 2 6.7462585e-001 2.9183099e+000 -2.2980851e+000 B 
3 1 -3.5065804e-001 3.4169970e+000 1.8820696e+000 A 
4 2 1.9042299e+000 2.7622230e+000 1.1430210e+000 B 
5 1 -3.6384937e+000 3.3727928e+000 1.4852581e+000 A 
6 2 -2.0681336e+000 2.9195316e+000 -1.6059825e+000 B 
7 1 1.1202320e+000 8.2993463e-002 3.8553257e+000 A 
8 2 3.3858988e+000 -1.4191946e+000 -3.8895689e+000 B 
9 1 2.3350917e+000 3.3493617e+000 3.2156022e+000 A 
10 2 1.2927850e+000 -1.8275296e+000 2.3279057e+000 B 
11 1 2.5706076e+000 -1.2248968e+000 -1.9550313e+000 A 
12 2 -1.8479787e+000 8.8103256e-001 -7.0484352e-001 B 
13 1 -2.8972256e+000 1.3158658e-001 3.2911244e+000 A 
14 2 1.9783048e+000 -3.8573582e+000 2.0848610e+000 B 
15 1 1.6797796e+000 -2.4643650e+000 3.8564330e+000 A 
16 2 -3.4928320e+000 2.5983350e+000 2.8149640e+000 B 
17 1 2.7112229e+000 1.2909788e+000 -2.9823133e+000 A 
18 2 -3.3269615e+000 2.9222810e-001 -3.5437205e+000 B 
19 1 1.5412422e+000 -4.6524999e-001 3.5029892e-001 A 
20 2 3.5974643e+000 4.5371162e-001 -2.8384884e+000 B 
21 1 1.7797791e+000 -2.4715085e+000 7.7602488e-001 A 
22 2 1.4522784e+000 6.5574907e-001 -6.0304967e-001 B 
23 1 -2.4334347e-001 -3.4202972e+000 3.6834877e+000 A 
24 2 -3.7928518e+000 2.1901937e+000 -3.9677717e-001 B 
25 1 5.6441731e-001 2.9423134e-001 1.5153491e+000 A 
26 2 3.8471746e+000 1.5193083e+000 3.0355672e-001 B 
27 1 3.8585380e+000 -2.9931153e+000 -7.6600622e-002 A 
28 2 1.7590660e+000 -2.3843729e-001 1.3104003e+000 B 
29 1 4.1248363e+000 -1.4305119e+000 4.4336076e-001 A 
30 2 -3.4522240e-001 3.1156183e+000 -2.0247279e+000 B 
31 1 -2.5136115e+000 -1.9012057e-001 -3.9281546e+000 A 
32 2 -3.4624603e+000 3.5078711e-001 -2.7712284e-001 B 
33 1 -1.6468425e+000 -1.7556783e-001 1.2794048e+000 A 
34 2 -1.9805656e+000 -9.2805654e-001 -1.2978348e-001 B 
35 1 -8.1107865e-001 3.8293255e-001 1.8254321e+000 A 
36 2 5.8334612e-001 -4.1065256e+000 -2.1327900e+000 B 
37 1 4.0976030e+000 -1.5872091e-001 3.8678925e+000 A 
38 2 3.7847833e+000 -3.5150734e-001 1.7338942e-001 B 
39 1 5.4202542e-001 8.7429663e-002 -7.7898960e-001 A 
40 2 -5.9598207e-002 1.4825312e+000 2.1216434e+000 B 
41 1 -3.4300913e+000 -2.9564082e+000 3.3454178e-001 A 
42 2 -7.4107473e-001 -3.2088955e+000 -7.6646555e-003 B 
43 1 3.7349802e-001 -2.8663549e+000 1.5654514e+000 A 
44 2 5.1150859e-001 2.8721718e+000 2.1471477e+000 B 
45 1 3.4851029e+000 -1.2538484e+000 -2.4209258e+000 A 
46 2 2.0826135e+000 -9.2472595e-001 4.1537815e+000 B 
47 1 8.9630620e-001 2.4862232e+000 3.9147158e+000 A 
48 2 -2.0793599e+000 -2.0118856e+000 -1.9615227e-001 B 
49 1 7.4185586e-001 2.8709762e+000 -1.0805723e+000 A 
50 2 -1.1667245e+000 3.1914519e+000 -2.8725653e+000 B 
51 1 -1.9704783e+000 3.7383798e+000 -3.8422888e+000 A 
52 2 -4.0699483e+000 2.4443360e+000 -1.7482226e+000 B 
53 1 9.8480767e-001 3.6068755e+000 3.2931618e+000 A 
54 2 -7.8215101e-001 -2.2023249e+000 -1.8615229e+000 B 
55 1 -1.4328549e-002 -1.0213430e+000 2.4295784e+000 A 
56 2 1.9525124e+000 4.0291485e+000 -2.7148738e+000 B 
57 1 3.4438320e+000 -2.8912508e-001 1.2731364e+000 A 
58 2 -8.9712771e-001 -1.8890769e+000 3.6964871e+000 B 
59 1 2.3438039e-001 -3.4289211e+000 5.9249078e-001 A 
60 2 -4.0636362e+000 -2.2336945e+000 2.8864556e+000 B 
ITEM: TIMESTEP
6000
ITEM: NUMBER OF ATOMS
60
ITEM: BOX BOUNDS pp pp pp
-4.2172 4.2172
-4.2172 4.2172
-4.2172 4.2172
ITEM: ATOMS id type x y z element 
1 1 3.8684995e+000 3.6374220e+000 1.6147468e+000 A 
2 2 4.9648706e-001 2.8489295e+000 -1.7582422e+000 B 
3 1 -7.8337440e-001 2.8315285e+000 2.5799308e+000 A 
4 2 3.0650178e+000 2.1699307e+000 1.2132188e+000 B 
5 1 -3.1588065e+000 3.4380590e+000 8.6213664e-001 A 
6 2 -2.5267737e+000 2.6948135e+000 -1.9050042e+000 B 
7 1 1.3940050e+000 3.8086644e-001 3.6287168e+000 A 
8 2 3.9107971e+000 -4.6259240e-001 -3.8771248e+000 B 
9 1 2.1953135e+000 2.7583329e+000 2.9523564e+000 A 
10 2 1.0555003e+000 -1.5202833e+000 3.0998613e+000 B 
11 1 2.5232980e+000 -2.0134233e+000 -1.6880132e+000 A 
12 2 -2.3241325e+000 1.3225357e+000 -1.5173954e+000 B 
13 1 -2.7124159e+000 1.3950061e+000 -4.1045724e+000 A 
14 2 5.1779005e-001 -3.4124883e+000 2.0100456e+000 B 
15 1 1.7086916e+000 -2.8285512e+000 4.0985154e+000 A 
16 2 -3.3295134e+000 1.3668425e+000 3.1241548e+000 B 
17 1 3.8821389e+000 1.6767687e+000 -2.8405312e+000 A 
18 2 -3.0397950e+000 3.3628290e-001 -3.9007077e+000 B 
19 1 1.4580506e+000 -7.1745964e-001 -6.7964185e-001 A 
20 2 2.5499537e+000 -4.3691131e-001 -1.9975878e+000 B 
21 1 1.8064463e+000 -3.0860802e+000 9.3752547e-001 A 
22 2 2.9206254e+000 6.8204951e-001 -8.7922194e-001 B 
23 1 -4.4979058e-001 -3.4038124e+000 -3.7397151e+000 A 
24 2 -3.4206341e+000 2.6013030e+000 -6.1807272e-001 B 
25 1 8.2605886e-001 5.8269900e-001 1.1059557e+000 A 
26 2 -3.8281082e+000 2.4628726e+000 1.0170106e+000 B 
27 1 4.1261473e+000 -3.0810432e+000 -9.7505413e-002 A 
28 2 8.1172266e-001 -3.7048557e-001 7.6795617e-001 B 
29 1 -4.0648173e+000 -1.5525266e+000 6.8621657e-001 A 
30 2 -9.3448149e-001 3.3179581e+000 -1.2711291e+000 B 
31 1 -2.3020287e+000 -4.2296553e-001 3.4822669e+000 A 
32 2 -3.9218947e+000 1.9382433e-001 -8.7401313e-001 B 
33 1 -8.6091712e-001 -5.4892917e-001 8.2499146e-001 A 
34 2 -2.3519690e+000 1.5169561e-001 -5.3983847e-001 B 
35 1 -1.2486162e+000 1.2586908e+000 2.0294203e+000 A 
36 2 1.4231468e+000 3.9510420e+000 -2.3395259e+000 B 
37 1 -3.4177840e+000 5.4260507e-002 3.1605596e+000 A 
38 2 3.7791587e+000 -1.6480529e+000 1.4535399e+000 B 
39 1 8.2827788e-001 -9.9575460e-001 -1.4613513e+000 A 
40 2 -1.7019094e-001 1.0315003e+000 2.0098711e+000 B 
41 1 -3.5544678e+000 -2.5105195e+000 3.1577754e-001 A 
42 2 -3.5376170e-001 4.1697081e+000 3.8052121e-001 B 
43 1 1.0610545e-001 -2.5538440e+000 7.5732353e-001 A 
44 2 1.1412832e+000 2.5450293e+000 2.4569768e+000 B 
45 1 3.4112506e+000 -1.0130605e+000 -3.0915811e+000 A 
46 2 9.9303374e-001 -6.8516935e-001 -4.0958948e+000 B 
47 1 3.9397670e-001 2.3068932e+000 3.9272288e+000 A 
48 2 -2.5174430e+000 -2.1922860e+000 -4.1890025e-001 B 
49 1 1.0758630e+000 2.1641588e+000 -6.5614338e-001 A 
50 2 -1.9311945e+000 2.2196802e+000 -2.7112906e+000 B 
51 1 -2.0809020e+000 2.9544156e+000 -3.2896139e+000 A 
52 2 -3.9474442e+000 1.9802932e+000 -1.9146074e+000 B 
53 1 1.4357355e-001 3.3175041e+000 3.3035468e+000 A 
54 2 -3.3790980e-003 -2.2279005e+000 -2.3622679e+000 B 
55 1 -5.6919881e-001 -8.6762805e-001 3.1072992e+000 A 
56 2 2.3808838e+000 3.4200447e+000 -2.4096077e+000 B 
57 1 2.6866476e+000 -1.8629404e-001 1.4137887e+000 A 
58 2 -9.1102904e-001 -1.9869260e+000 2.9986177e+000 B 
59 1 4.6878607e-001 -3.9118260e+000 7.0394628e-002 A 
60 2 -3.8045101e+000 -2.6837747e+000 1.2395124e+000 B 
ITEM: TIMESTEP
7000
ITEM: NUMBER OF ATOMS
60
ITEM: BOX BOUNDS pp pp pp
-4.2172 4.2172
-4.2172 4.2172
-4.2172 4.2172
ITEM: ATOMS id type x y z element 
1 1 4.1751305e+000 3.5593928e+000 1.0246232e+000 A 
2 2 3.3934960e-001 2.7285084e+000 -1.2581883e+000 B 
3 1 -7.5146781e-001 3.1199465e+000 2.9272735e+000 A 
4 2 3.2335852e+000 2.5310078e+000 5.2277964e-001 B 
5 1 -3.1317107e+000 2.8316934e+000 6.8354559e-001 A 
6 2 -2.8589401e+000 2.3084521e+000 -2.3811508e+000 B 
7 1 1.1594773e+000 8.2672713e-001 4.2677586e+000 A 
8 2 -4.1979261e+000 -4.9970642e-001 -3.7650713e+000 B 
9 1 2.2421374e+000 3.2821544e+000 2.1746864e+000 A 
10 2 5.2358663e-001 -2.1182421e+000 3.8874168e+000 B 
11 1 2.3117258e+000 -2.2420435e+000 -1.4937165e+000 A 
12 2 -2.4395101e+000 1.1641028e+000 -1.6534597e+000 B 
13 1 -2.7334862e+000 1.6059325e+000 3.7847205e+000 A 
14 2 1.0492814e+000 -3.2312476e+000 2.0506667e+000 B 
15 1 1.7409439e+000 -1.9746362e+000 3.6825698e+000 A 
16 2 -3.2290905e+000 1.3712302e+000 2.9941748e+000 B 
17 1 3.1239137e+000 1.3347140e+000 -2.0178500e+000 A 
18 2 -2.4509435e+000 1.3789953e-002 -3.3415019e+000 B 
19 1 2.6793736e+000 -9.6551749e-001 -1.4825552e+000 A 
20 2 3.2428039e+000 1.9830249e-001 -1.1503720e+000 B 
21 1 1.5328666e+000 -2.7043556e+000 -9.7515294e-002 A 
22 2 2.9589469e+000 5.8467076e-001 1.4049974e-001 B 
23 1 -2.3143272e-001 -4.0966250e+000 3.6600099e+000 A 
24 2 -2.6708237e+000 2.4072548e+000 -9.1450995e-001 B 
25 1 7.0228461e-001 5.2466408e-001 1.6064974e+000 A 
26 2 -4.0450628e+000 1.9661142e+000 1.3177298e+000 B 
27 1 4.0154834e+000 -3.3403386e+000 -6.6232527e-002 A 
28 2 8.7534899e-001 -9.7318487e-001 7.1420470e-002 B 
29 1 3.7917805e+000 -6.9776517e-001 1.1288524e+000 A 
30 2 -1.1573511e+000 3.3093617e+000 -2.4097579e+000 B 
31 1 -2.9820811e+000 -8.2652427e-001 3.5273079e+000 A 
32 2 -3.2373524e+000 1.1212624e+000 -7.6996221e-001 B 
33 1 -2.1793040e-001 -4.1859039e-001 8.5388781e-001 A 
34 2 -2.4092258e+000 8.0668269e-001 -3.5705444e-001 B 
35 1 -6.5036801e-001 1.7684816e+000 2.6900603e+000 A 
36 2 1.0109576e+000 3.3712042e+000 -1.7233962e+000 B 
37 1 -3.3123798e+000 1.9073521e-001 2.1769952e+000 A 
38 2 3.8582104e+000 -2.0076775e+000 1.6097925e+000 B 
39 1 5.0952040e-001 -3.6611116e-001 -1.9142113e+000 A 
40 2 3.2876161e-001 1.3015100e+000 2.3642631e+000 B 
41 1 -3.3447445e+000 -2.7212092e+000 3.6156968e-001 A 
42 2 -1.2194119e+000 -4.0172468e+000 -1.9489394e-001 B 
43 1 -3.9045012e-001 -2.5340836e+000 1.6836463e+000 A 
44 2 8.4370492e-001 2.4713498e+000 1.7251182e+000 B 
45 1 3.7426218e+000 -1.5545055e+000 -2.3698557e+000 A 
46 2 1.5646796e+000 -5.7701064e-001 -3.9531945e+000 B 
47 1 2.8511225e-001 2.6389756e+000 3.0771275e+000 A 
48 2 -2.9041945e+000 -1.8627467e+000 -4.0437787e-001 B 
49 1 1.5020941e+000 2.0193763e+000 -8.2516458e-001 A 
50 2 -1.8152541e+000 1.7045671e+000 -2.6250462e+000 B 
51 1 -2.1134168e+000 2.8849143e+000 -3.3557833e+000 A 
52 2 3.9670425e+000 2.1364184e+000 -2.8605727e+000 B 
53 1 1.7957722e-001 3.8111283e+000 2.6714124e+000 A 
54 2 -9.7401089e-001 -3.5112495e+000 -2.5205362e+000 B 
55 1 1.0856776e-001 -1.0910079e+000 3.3870652e+000 A 
56 2 2.1072805e+000 2.5605457e+000 -2.3288013e+000 B 
57 1 3.1578064e+000 1.4438658e-001 1.6584276e+000 A 
58 2 -7.1417585e-001 -2.2769986e+000 3.0326506e+000 B 
59 1 -2.5817354e-001 3.9216346e+000 -5.6013064e-001 A 
60 2 3.5187519e+000 -3.2513566e+000 2.2882551e+000 B 
ITEM: TIMESTEP
8000
ITEM: NUMBER OF ATOMS
60
ITEM: BOX BOUNDS pp pp pp
-4.2172 4.2172
-4.2172 4.2172
-4.2172 4.2172
ITEM: ATOMS id type x y z element 
1 1 -4.0342971e+000 4.0807214e+000 8.1136027e-001 A 
2 2 2.1820883e-001 3.3307799e+000 -1.4924145e+000 B 
3 1 -1.0199090e+000 3.0285529e+000 3.0332687e+000 A 
4 2 3.9451734e+000 2.9525093e+000 7.9582641e-001 B 
5 1 -2.9298397e+000 2.4971983e+000 6.4364354e-001 A 
6 2 -3.2270530e+000 3.1780095e+000 -1.9429466e+000 B 
7 1 8.4813913e-001 1.3512879e+000 3.7053100e+000 A 
8 2 -4.1024196e+000 -2.8880058e-001 -3.5547146e+000 B 
9 1 2.3403669e+000 3.0372283e+000 3.4019392e+000 A 
10 2 -3.2813398e-001 -1.9589814e+000 3.8358753e+000 B 
11 1 1.7700347e+000 -1.6236041e+000 -1.4817635e+000 A 
12 2 -1.5539646e+000 1.0581445e+000 -1.7990595e+000 B 
13 1 -2.4865552e+000 1.9932573e+000 -4.0271025e+000 A 
14 2 1.5847431e+000 -3.0505175e+000 2.2081714e+000 B 
15 1 2.0522511e+000 -1.3470239e+000 4.0273112e+000 A 
16 2 -4.1091177e+000 4.1893112e-001 2.6436153e+000 B 
17 1 3.4582210e+000 1.7020591e+000 -2.1463804e+000 A 
18 2 -2.5920469e+000 1.5451971e-001 -2.9734717e+000 B 
19 1 2.4058188e+000 -6.8764995e-001 -1.2510026e+000 A 
20 2 3.0740160e+000 2.2209221e-001 -1.4777844e+000 B 
21 1 1.1117276e+000 -3.0291525e+000 -7.0826340e-002 A 
22 2 3.8295561e+000 3.2896491e-001 -4.4447786e-001 B 
23 1 -7.5530807e-002 -3.6814054e+000 3.1706277e+000 A 
24 2 -2.9029108e+000 2.2719892e+000 -1.3292132e+000 B 
25 1 8.3324322e-001 -2.8285493e-001 1.8453681e+000 A 
26 2 -3.8143379e+000 1.4606082e+000 8.9847792e-001 B 
27 1 -3.6985289e+000 -3.6736619e+000 -5.2187672e-001 A 
28 2 1.5809812e+000 -6.7384902e-001 -7.3672808e-002 B 
29 1 3.8504891e+000 -6.7602562e-001 8.5474559e-001 A 
30 2 -6.5210772e-001 3.7020202e+000 -3.0677733e+000 B 
31 1 -3.1264143e+000 -7.3914896e-001 3.5509078e+000 A 
32 2 -3.2250014e+000 1.2140176e+000 -8.8573527e-001 B 
33 1 5.1891464e-002 4.3480801e-001 1.9813795e+000 A 
34 2 -2.4339910e+000 1.2872053e+000 4.7296748e-002 B 
35 1 -8.8490313e-001 1.2568046e+000 2.9192372e+000 A 
36 2 1.5564203e+000 3.3345268e+000 -4.5220751e-001 B 
37 1 -3.1150593e+000 6.7553876e-001 2.4005308e+000 A 
38 2 3.8488843e+000 -1.6889837e+000 9.3894023e-001 B 
39 1 7.5352316e-001 6.7195794e-002 -2.3486798e+000 A 
40 2 1.2902358e+000 1.2093696e+000 2.0264293e+000 B 
41 1 -3.3566654e+000 -2.6967279e+000 -1.4815831e-001 A 
42 2 -1.4055148e+000 -3.6127500e+000 -2.8173399e-002 B 
43 1 -8.5972103e-001 -2.3616883e+000 2.0217420e+000 A 
44 2 1.3097751e+000 2.5697149e+000 9.7823598e-001 B 
45 1 -4.0089065e+000 -1.6378063e+000 -2.6305739e+000 A 
46 2 1.1354062e+000 -1.0622715e+000 -3.9660881e+000 B 
47 1 8.7473735e-001 1.9559734e+000 2.8119073e+000 A 
48 2 -3.1359437e+000 -1.7531296e+000 4.5756056e-001 B 