ITEM: TIMESTEP
0
ITEM: NUMBER OF ATOMS
450
ITEM: BOX BOUNDS pp pp pp
-10.588968 10.588968
-10.588968 10.588968
-20.000000 20.000000
ITEM: ATOMS id type x y z element
1 0 -3.463322 -10.232038 -5.329289 O
2 0 -2.774224 -9.511460 -5.406739 H
3 0 -3.777933 -10.291787 -4.381906 H
4 0 -1.781249 -6.501201 1.293700 O
5 0 -1.772783 -7.275796 1.926179 H
6 0 -2.353938 -6.721967 0.504154 H
7 0 2.118298 -6.380807 -2.089093 O
8 0 2.592082 -6.540696 -2.955143 H
9 0 2.637032 -5.723940 -1.541809 H
10 0 2.899561 1.128509 -4.712563 O
11 0 2.538487 1.655270 -3.942988 H
12 0 2.375801 1.341872 -5.537334 H
13 0 2.962033 -3.747612 3.372879 O
14 0 2.353806 -3.029143 3.035295 H
15 0 3.833012 -3.343009 3.651788 H
16 0 7.070955 9.445075 -5.561310 O
17 0 6.803444 8.495114 -5.399768 H
18 0 6.263892 10.032765 -5.504085 H
19 0 -8.375678 -8.649929 -0.996049 O
20 0 -9.311327 -8.379242 -0.769573 H
21 0 -8.389631 -9.278208 -1.773913 H
22 0 -6.656014 -1.361013 -1.935407 O
23 0 -6.255656 -1.641542 -1.062998 H
24 0 -6.379171 -2.002670 -2.650749 H
25 0 8.895697 -0.070201 -0.317782 O
26 0 8.688865 -1.048529 -0.304205 H
27 0 8.314412 0.383925 -0.993034 H
28 0 9.136261 10.435653 1.075091 O
29 0 8.670538 9.657827 0.652991 H
30 0 10.123050 10.346956 0.939233 H
31 0 6.181712 -8.187047 -0.570167 O
32 0 6.832039 -7.965637 -1.296842 H
33 0 5.705430 -7.355442 -0.284530 H
34 0 7.266261 -5.268490 4.499791 O
35 0 7.615368 -4.929576 5.373486 H
36 0 7.974290 -5.808886 4.045099 H
37 0 -1.300650 -8.099216 -5.870611 O
38 0 -0.301875 -8.080376 -5.917408 H
39 0 -1.645683 -7.169721 -5.739896 H
40 0 -8.050735 4.113943 -0.446200 O
41 0 -8.122791 3.261010 0.070910 H
42 0 -8.158452 3.922263 -1.421771 H
43 0 -6.931196 -1.317924 5.217490 O
44 0 -6.546517 -0.791679 4.459143 H
45 0 -6.309996 -2.065236 5.453362 H
46 0 -9.041854 1.048108 1.084898 O
47 0 -9.215254 0.650140 1.985801 H
48 0 -9.659425 0.636804 0.414446 H
49 0 -4.830644 4.165437 0.314141 O
50 0 -5.445119 4.337411 1.084155 H
51 0 -5.362769 4.109161 -0.530696 H
52 0 3.852379 -4.852082 -4.471920 O
53 0 3.662008 -3.878606 -4.599158 H
54 0 4.747552 -4.962892 -4.040103 H
55 0 5.786484 -1.854721 -0.172868 O
56 0 5.870520 -0.948711 0.242072 H
57 0 6.538090 -2.435502 0.139973 H
58 0 -7.929831 0.684499 -5.006133 O
59 0 -8.177544 -0.224376 -5.341805 H
60 0 -8.621486 1.346410 -5.295230 H
61 0 -6.067769 0.565069 0.865992 O
62 0 -6.198064 -0.375899 1.178530 H
63 0 -6.949548 1.036602 0.851823 H
64 0 -5.060138 -3.369014 -4.258396 O
65 0 -4.199837 -3.730082 -4.618275 H
66 0 -5.818974 -3.688482 -4.826030 H
67 0 -1.260411 -1.055478 -4.060314 O
68 0 -0.958973 -1.198715 -3.117610 H
69 0 -1.500905 -1.935207 -4.470575 H
70 0 4.126914 -1.850965 -2.909589 O
71 0 3.712207 -1.227545 -3.572495 H
72 0 4.030648 -1.471165 -1.989502 H
73 0 -6.053553 1.852199 -1.837272 O
74 0 -6.294504 1.101975 -1.221483 H
75 0 -6.350370 1.629458 -2.765913 H
76 0 1.009179 -9.479775 -3.585917 O
77 0 1.796132 -10.045056 -3.833373 H
78 0 0.265072 -10.066256 -3.265898 H
79 0 0.622428 6.399840 -3.508233 O
80 0 0.246313 7.323935 -3.576653 H
81 0 0.695534 6.001312 -4.422521 H
82 0 3.153546 8.949516 -4.327846 O
83 0 3.306470 7.970994 -4.466407 H
84 0 3.932389 9.462828 -4.688398 H
85 0 6.973865 -0.322532 -3.202442 O
86 0 6.208626 0.299540 -3.368342 H
87 0 6.738083 -0.950423 -2.460658 H
88 0 -6.466651 7.591533 -4.625410 O
89 0 -6.188260 8.338859 -4.022081 H
90 0 -5.737212 7.405374 -5.283638 H
91 0 -6.913428 -8.778544 -5.705487 O
92 0 -6.328704 -8.886364 -6.509572 H
93 0 -7.136427 -9.679207 -5.332454 H
94 0 9.636303 4.797707 0.408324 O
95 0 8.935731 5.476021 0.630078 H
96 0 10.210323 4.636810 1.211252 H
97 0 8.382100 7.886121 -0.308497 O
98 0 7.450340 7.898529 -0.671478 H
99 0 8.981755 7.402674 -0.946287 H
100 0 5.668261 9.584492 -0.845448 O
101 0 4.940055 10.259172 -0.966288 H
102 0 6.466047 9.855146 -1.384302 H
103 0 2.278915 -1.521299 1.150871 O
104 0 2.327822 -0.932182 0.344242 H
105 0 3.201011 -1.809229 1.409583 H
106 0 -5.521967 -10.100200 0.326906 O
107 0 -5.004996 10.269585 0.609237 H
108 0 -6.372981 -10.049616 0.849681 H
109 0 8.233685 -10.566754 -2.383572 O
110 0 7.964522 -10.473453 -3.342137 H
111 0 8.843249 -9.814354 -2.133922 H
112 0 0.650606 -8.051837 0.094832 O
113 0 -0.145476 -7.475757 0.280450 H
114 0 1.234100 -7.605378 -0.583605 H
115 0 8.105536 -8.151081 2.469516 O
116 0 8.205115 -9.139574 2.355218 H
117 0 7.140484 -7.926943 2.605635 H
118 0 2.443483 -0.942369 4.867744 O
119 0 2.102307 -0.106793 5.298439 H
120 0 2.210041 -1.730255 5.437679 H
121 0 6.258214 -4.166424 -2.640991 O
122 0 5.619210 -3.587335 -2.134606 H
123 0 7.169188 -3.754351 -2.620711 H
124 0 5.339308 -9.679259 -4.018722 O
125 0 5.057478 -9.412527 -3.097037 H
126 0 5.432178 -8.862500 -4.588242 H
127 0 7.138151 -7.031570 -3.209605 O
128 0 7.119763 -6.032542 -3.168639 H
129 0 8.060847 -7.338584 -3.442936 H
130 0 -4.628486 -7.407614 -3.859465 O
131 0 -4.890549 -8.190796 -3.295525 H
132 0 -5.450230 -6.970470 -4.225140 H
133 0 -3.995148 5.985117 -5.595466 O
134 0 -4.304328 5.653849 -6.486949 H
135 0 -3.297523 5.366596 -5.233771 H
136 0 -6.000601 9.901955 -2.808855 O
137 0 -5.252686 10.485297 -2.491976 H
138 0 -6.427970 9.452498 -2.024369 H
139 0 3.514878 -9.485244 -1.228136 O
140 0 2.641108 -9.056057 -0.999235 H
141 0 4.260576 -8.848807 -1.030776 H
142 0 -7.125778 7.237790 -1.305282 O
143 0 -6.822273 6.355630 -1.665510 H
144 0 -8.109451 7.338201 -1.454915 H
145 0 9.315846 -3.620480 5.861531 O
146 0 10.137411 -3.837262 5.334322 H
147 0 9.250491 -2.630320 5.984929 H
148 0 10.095776 -9.863133 4.489938 O
149 0 9.256841 -9.384503 4.230759 H
150 0 -10.446112 -9.216475 4.911063 H
151 0 -4.880791 -3.957437 -1.309347 O
152 0 -4.681813 -4.804939 -0.817189 H
153 0 -5.301536 -4.174543 -2.190203 H
154 0 -1.721022 -4.385502 -1.705383 O
155 0 -1.195154 -3.643025 -1.290311 H
156 0 -2.625374 -4.047795 -1.966518 H
157 0 0.015840 0.577600 -1.328116 O
158 0 -0.348799 1.460561 -1.623907 H
159 0 0.772919 0.726002 -0.691815 H
160 0 -0.265074 8.318578 1.939940 O
161 0 -1.214859 8.593976 2.088730 H
162 0 -0.172188 7.337378 2.109326 H
163 0 -9.223370 -5.515131 -0.100960 O
164 0 -8.317416 -5.594621 0.314997 H
165 0 -9.202020 -5.902664 -1.022616 H
166 0 -9.122661 -4.782086 -3.304655 O
167 0 -9.113016 -3.782376 -3.328865 H
168 0 -9.934067 -5.119135 -3.782269 H
169 0 -4.033127 5.445772 3.070681 O
170 0 -3.331123 5.208749 3.742323 H
171 0 -3.679822 5.285952 2.148877 H
172 0 -3.697794 0.786681 -5.044382 O
173 0 -4.362753 0.091585 -5.317807 H
174 0 -2.911627 0.344224 -4.612802 H
175 0 8.929794 -4.779342 -4.888401 O
176 0 7.948453 -4.940576 -4.783271 H
177 0 9.076284 -3.901300 -5.344097 H
178 0 -6.946182 -5.789809 -5.130231 O
179 0 -7.055513 -6.540248 -5.782135 H
180 0 -7.719275 -5.784187 -4.495894 H
181 0 -8.020193 -9.706200 2.339097 O
182 0 -8.437663 -8.885795 1.948280 H
183 0 -8.400099 -10.517459 1.894564 H
184 0 -0.986098 4.652799 1.983023 O
185 0 -0.615088 4.654493 2.911704 H
186 0 -0.332085 4.218246 1.363730 H
187 0 6.528534 5.195514 -2.126905 O
188 0 7.167872 5.743134 -2.666760 H
189 0 5.649188 5.668515 -2.071231 H
190 0 -1.423749 9.585190 -1.208805 O
191 0 -0.506560 9.241930 -1.411327 H
192 0 -1.555333 9.619864 -0.218069 H
193 0 3.451254 0.881127 -0.511395 O
194 0 4.345223 1.289228 -0.696784 H
195 0 3.180357 1.085391 0.429342 H
196 0 3.791188 -4.354972 -0.458655 O
197 0 4.521945 -3.690584 -0.301551 H
198 0 3.825008 -5.060992 0.248797 H
199 0 3.320340 3.888347 -3.155332 O
200 0 2.560585 3.263982 -3.337063 H
201 0 3.828942 3.570267 -2.355187 H
202 0 -9.662593 -1.721511 -3.318790 O
203 0 -10.327998 -1.035674 -3.613678 H
204 0 -8.767055 -1.290594 -3.207359 H
205 0 -1.019074 9.501029 -4.719240 O
206 0 -2.003522 9.357834 -4.617453 H
207 0 -0.853617 10.185800 -5.428968 H
208 0 2.997517 4.175398 0.055325 O
209 0 3.420092 4.993231 -0.335408 H
210 0 3.067812 4.207988 1.052365 H
211 0 10.268889 -7.885134 -3.853646 O
212 0 10.212807 -7.786281 -4.847209 H
213 0 -10.116839 -8.448556 -3.619032 H
214 0 6.323829 2.709108 -4.521772 O
215 0 5.349234 2.490250 -4.570169 H
216 0 6.487570 3.333698 -3.758127 H
217 0 4.303019 2.929922 5.493318 O
218 0 3.339678 3.017261 5.747150 H
219 0 4.399416 2.227498 4.788060 H
220 0 0.360386 -4.524111 0.567818 O
221 0 -0.133418 -5.321969 0.913622 H
222 0 0.230480 -3.754927 1.193578 H
223 0 -3.365147 -9.897313 -2.407793 O
224 0 -2.766695 10.563380 -2.050711 H
225 0 -2.995981 -9.001470 -2.160271 H
226 0 4.214683 6.274139 -4.811911 O
227 0 4.947354 5.794612 -5.294939 H
228 0 3.692532 5.619996 -4.264622 H
229 0 0.639089 1.359108 1.860803 O
230 0 0.513969 0.369345 1.791532 H
231 0 -0.254466 1.805059 1.913424 H
232 0 -5.333246 -7.625702 2.934733 O
233 0 -4.594970 -7.750175 3.597721 H
234 0 -5.931782 -8.426745 2.948251 H
235 0 5.373420 -9.960008 2.023949 O
236 0 4.620993 -10.558663 1.749100 H
237 0 5.878503 -9.665675 1.212570 H
238 0 -3.366933 -7.879960 5.222984 O
239 0 -2.655618 -7.201940 5.408433 H
240 0 -2.999109 -8.797957 5.371492 H
241 0 10.207685 -5.426407 2.588284 O
242 0 -10.122837 -5.283259 2.077011 H
243 0 9.938398 -6.387357 2.524569 H
244 0 1.610170 9.102069 -1.654183 O
245 0 2.219700 9.801479 -1.280836 H
246 0 1.839339 8.938110 -2.613707 H
247 0 -9.300827 9.624608 -0.084473 O
248 0 -9.217486 10.486455 -0.584834 H
249 0 -9.633504 8.911699 -0.701866 H
250 0 10.084539 -8.304223 -0.377555 O
251 0 9.613398 -8.911448 0.262279 H
252 0 9.587340 -7.439040 -0.443383 H
253 0 -4.034267 -0.350410 3.678782 O
254 0 -3.079361 -0.645984 3.708620 H
255 0 -4.244782 0.004877 2.767984 H
256 0 3.333517 -8.806974 4.093568 O
257 0 4.028780 -9.085245 3.430808 H
258 0 3.736401 -8.171311 4.752119 H
259 0 6.433442 2.076139 -0.507952 O
260 0 6.876594 1.958354 0.380763 H
261 0 6.452602 3.042545 -0.764395 H
262 0 -0.668643 -0.722019 4.412579 O
263 0 -0.955174 -0.994752 5.331051 H
264 0 0.167150 -1.212128 4.164963 H
265 0 -1.121896 -1.791253 1.038023 O
266 0 -1.835445 -2.421267 1.344656 H
267 0 -1.539784 -0.930313 0.747775 H
268 0 -2.799271 2.506349 -2.156023 O
269 0 -2.543947 3.404525 -1.798014 H
270 0 -3.787220 2.476849 -2.308221 H
271 0 9.064644 -2.775266 -1.729112 O
272 0 9.344939 -3.471012 -1.067714 H
273 0 9.865237 -2.455676 -2.236049 H
274 0 -10.041424 2.990893 -5.727027 O
275 0 -9.661018 3.699502 -5.132678 H
276 0 -10.240133 3.381333 -6.626003 H
277 0 -3.254113 -1.070687 -1.422911 O
278 0 -3.833820 -1.369603 -2.180993 H
279 0 -2.715674 -0.277590 -1.707833 H
280 0 -2.276595 1.808398 0.949685 O
281 0 -2.306743 1.797497 -0.049845 H
282 0 -2.863360 2.541942 1.292766 H
283 0 -2.326631 3.450061 -5.784170 O
284 0 -2.985251 2.718719 -5.961522 H
285 0 -1.568953 3.091146 -5.239011 H
286 0 4.374186 -6.051481 4.804096 O
287 0 3.681889 -5.544081 4.290909 H
288 0 5.184521 -5.478436 4.926841 H
289 0 -8.541489 5.390795 -4.357518 O
290 0 -7.805981 4.756828 -4.118368 H
291 0 -8.151714 6.209637 -4.779003 H
292 0 -5.468933 5.169923 -2.690026 O
293 0 -4.765892 5.518701 -2.070278 H
294 0 -5.261560 5.457929 -3.624985 H
295 0 -6.033680 3.368707 -5.089628 O
296 0 -5.635335 3.079560 -4.219119 H
297 0 -6.695434 2.684753 -5.396803 H
298 0 -2.485141 -10.162403 1.731171 O
299 0 -3.247672 10.562166 2.192784 H
300 0 -2.764879 -9.896122 0.808717 H
301 0 -6.847768 3.570735 2.675854 O
302 0 -7.439427 3.116731 3.342112 H
303 0 -6.111684 4.048805 3.155131 H
304 0 9.804827 0.589961 -3.918832 O
305 0 9.000705 0.174935 -3.493130 H
306 0 9.567672 0.912332 -4.835299 H
307 0 -0.198641 2.374811 -3.933921 O
308 0 -0.360761 1.392775 -3.837001 H
309 0 -0.408425 2.833980 -3.070658 H
310 0 -7.235134 7.880480 1.706457 O
311 0 -7.952615 7.800397 2.398484 H
312 0 -7.652470 8.019306 0.808322 H
313 0 5.595701 -2.625412 3.515434 O
314 0 6.398259 -3.106946 3.163121 H
315 0 5.889931 -1.887479 4.122874 H
316 0 3.880145 4.571031 2.918023 O
317 0 4.537970 3.954464 2.485365 H
318 0 4.107188 4.674148 3.886473 H
319 0 0.356951 -6.500453 5.067398 O
320 0 0.236669 -7.453441 4.789106 H
321 0 1.129265 -6.432749 5.699097 H
322 0 -4.860907 10.060857 3.580977 O
323 0 -4.541368 9.115510 3.646438 H
324 0 -5.854311 10.069645 3.466350 H
325 0 3.349683 -7.095029 1.159955 O
326 0 3.643270 -7.696596 1.902923 H
327 0 2.351853 -7.028624 1.159501 H
328 0 -2.466922 6.475373 -1.567081 O
329 0 -1.694771 6.065787 -1.081190 H
330 0 -2.210381 7.385059 -1.893771 H
331 0 -1.242378 -7.590428 -2.436002 O
332 0 -0.425363 -8.085533 -2.731717 H
333 0 -1.086649 -6.606687 -2.525955 H
334 0 -6.527374 -4.703619 2.005338 O
335 0 -6.119302 -5.532845 2.387374 H
336 0 -5.804463 -4.052123 1.775031 H
337 0 7.599319 6.174293 2.359749 O
338 0 7.090026 6.335319 3.205194 H
339 0 7.698291 7.035531 1.861193 H
340 0 8.172617 6.969316 -3.663091 O
341 0 8.094812 7.962323 -3.752350 H
342 0 9.137133 6.706720 -3.691911 H
343 0 0.279303 -3.567921 5.881486 O
344 0 -0.391926 -4.026839 6.463654 H
345 0 0.590635 -4.198777 5.170737 H
346 0 8.296016 -5.903594 -0.333099 O
347 0 7.848350 -6.552581 0.282055 H
348 0 8.159057 -4.973270 0.007107 H
349 0 9.352082 1.810810 2.876523 O
350 0 10.094153 2.431615 3.129517 H
351 0 9.294698 1.748695 1.880070 H
352 0 -8.186439 -4.531593 4.397204 O
353 0 -7.665681 -4.434845 3.548998 H
354 0 -8.069469 -5.457572 4.756205 H
355 0 -10.442537 3.408066 -2.507461 O
356 0 10.195976 2.627899 -2.824262 H
357 0 10.453935 3.652997 -1.579622 H
358 0 -4.372827 -2.558907 1.581383 O
359 0 -3.649058 -3.029683 2.085890 H
360 0 -3.997632 -2.180727 0.735091 H
361 0 6.660055 0.514315 2.041770 O
362 0 5.840329 0.963931 2.396724 H
363 0 7.473249 0.964471 2.410781 H
364 0 8.379606 -2.823846 1.795076 O
365 0 8.833566 -3.673322 2.063984 H
366 0 8.493594 -2.141952 2.517659 H
367 0 -0.034302 -9.666267 3.952105 O
368 0 -0.554076 -10.264181 3.341912 H
369 0 0.937088 -9.897286 3.897045 H
370 0 -9.892017 -1.836285 3.073492 O
371 0 -9.838682 -2.227775 2.154820 H
372 0 -9.159215 -2.213807 3.639661 H
373 0 -2.558511 -5.469716 -4.552967 O
374 0 -2.839136 -6.212267 -3.944734 H
375 0 -1.960411 -4.840427 -4.056629 H
376 0 -10.308881 6.718800 -2.146077 O
377 0 -10.345287 5.886291 -1.593183 H
378 0 -9.910855 6.508584 -3.039089 H
379 0 -8.689970 -2.013201 0.249134 O
380 0 -8.493672 -2.951363 -0.036170 H
381 0 -8.770964 -1.429285 -0.558676 H
382 0 1.156576 5.719119 3.997444 O
383 0 1.170458 6.662639 4.328588 H
384 0 2.061281 5.475275 3.647981 H
385 0 6.667447 3.406815 2.431125 O
386 0 6.841835 4.324391 2.073748 H
387 0 7.449869 3.107708 2.977408 H
388 0 8.835398 -0.879496 4.777388 O
389 0 9.679224 -1.399816 4.645813 H
390 0 8.937304 0.028810 4.371580 H
391 0 1.101246 -3.079631 -2.419660 O
392 0 2.080686 -3.020474 -2.612715 H
393 0 0.953665 -3.663196 -1.621071 H
394 0 0.266846 3.898766 -1.508249 O
395 0 1.122398 3.847032 -0.993046 H
396 0 0.299767 4.680360 -2.131232 H
397 0 5.850313 -5.383815 1.643407 O
398 0 5.896829 -4.487114 2.083698 H
399 0 5.011508 -5.850036 1.924717 H
400 0 -4.915232 -6.966435 -0.340720 O
401 0 -5.065278 -7.521887 -1.158621 H
402 0 -5.140428 -7.503143 0.472442 H
403 0 -2.404921 2.612558 4.107375 O
404 0 -3.398274 2.509119 4.055969 H
405 0 -1.965734 1.766260 3.805745 H
406 0 3.815238 0.934287 3.000174 O
407 0 3.761746 0.001683 3.357213 H
408 0 2.893459 1.270366 2.806630 H
409 0 7.736956 3.277875 5.565755 O
410 0 7.864231 2.701002 6.372613 H
411 0 6.764277 3.321702 5.337561 H
412 0 6.351290 6.665529 4.798168 O
413 0 6.642214 7.620187 4.861967 H
414 0 6.034983 6.352999 5.693909 H
415 0 -10.178705 7.599398 2.836704 O
416 0 -10.371397 7.773962 3.802348 H
417 0 10.348596 6.927210 2.483287 H
418 0 -4.237084 8.076119 0.531386 O
419 0 -3.591576 7.489749 0.041924 H
420 0 -5.171317 7.836937 0.266655 H
421 0 2.386018 9.338533 4.439553 O
422 0 2.352216 9.636146 3.485418 H
423 0 2.675906 10.102060 5.016683 H
424 0 2.339150 -10.398591 1.576581 O
425 0 1.887855 9.889488 1.508990 H
426 0 1.680635 -9.674542 1.371177 H
427 0 -9.036016 1.592183 5.121358 O
428 0 -8.248105 1.334372 5.680667 H
429 0 -9.726363 0.869969 5.165199 H
430 0 1.222886 2.813945 5.139612 O
431 0 1.039807 3.713355 4.742578 H
432 0 0.362260 2.398075 5.433659 H
433 0 -9.928530 4.559134 3.292654 O
434 0 -9.420635 5.417185 3.216531 H
435 0 -9.302887 3.823553 3.552444 H
436 0 7.367909 9.578094 3.937877 O
437 0 8.267160 9.589538 3.500479 H
438 0 6.666216 9.806868 3.263052 H
439 0 -8.985328 10.339821 -3.332708 O
440 0 -9.569811 9.553669 -3.533772 H
441 0 -8.029583 10.094857 -3.495870 H
442 0 4.169434 6.844329 -1.054013 O
443 0 3.418907 7.215476 -1.600852 H
444 0 4.771765 7.588852 -0.765993 H
445 0 -2.618074 -4.156828 3.345270 O
446 0 -2.566697 -4.992622 2.798551 H
447 0 -1.855599 -4.134300 3.991968 H
448 0 -7.706774 -7.915316 5.312217 O
449 0 -7.618631 -8.678401 5.952551 H
450 0 -6.805696 -7.680729 4.947358 H
ITEM: TIMESTEP
1
ITEM: NUMBER OF ATOMS
450
ITEM: BOX BOUNDS pp pp pp
-10.588968 10.588968
-10.588968 10.588968
-20.000000 20.000000
ITEM: ATOMS id type x y z element
1 0 -3.895130 -10.062981 -5.416557 O
2 0 -3.130451 -9.631113 -5.894945 H
3 0 -3.609831 -10.315464 -4.491919 H
4 0 -2.139534 -6.605928 1.182825 O
5 0 -2.087530 -7.550919 1.505895 H
6 0 -3.097580 -6.324056 1.130091 H
7 0 2.346339 -6.352296 -2.130610 O
8 0 2.681950 -6.034866 -3.017569 H
9 0 2.526525 -5.654699 -1.437082 H
10 0 2.915631 1.070922 -4.638254 O
11 0 2.372684 0.231672 -4.668994 H
12 0 3.268995 1.272836 -5.551732 H
13 0 3.046053 -3.814199 3.324945 O
14 0 2.393712 -3.378940 2.704395 H
15 0 3.838663 -3.216885 3.447684 H
16 0 7.025910 9.331577 -5.775308 O
17 0 6.242018 8.740332 -5.965119 H
18 0 6.787939 9.977929 -5.050270 H
19 0 -8.020513 -8.561407 -0.868780 O
20 0 -8.968224 -8.322997 -0.656462 H
21 0 -7.994356 -9.112245 -1.703025 H
22 0 -6.392920 -1.626137 -1.980101 O
23 0 -5.611163 -1.774977 -1.374459 H
24 0 -6.165954 -1.942907 -2.901099 H
25 0 9.026080 -0.018891 -0.470437 O
26 0 8.942344 -0.112152 -1.462598 H
27 0 8.164111 0.320520 -0.093740 H
28 0 8.979472 10.247577 1.256829 O
29 0 8.934731 9.363000 0.792499 H
30 0 9.326876 10.119113 2.185747 H
31 0 6.256486 -8.262574 -0.349873 O
32 0 6.733624 -8.266824 -1.228736 H
33 0 6.457265 -7.410832 0.134175 H
34 0 7.393112 -5.593210 4.521775 O
35 0 8.299994 -5.276591 4.799979 H
36 0 7.426639 -5.908282 3.573259 H
37 0 -1.439812 -8.051052 -5.716161 O
38 0 -0.533213 -8.067309 -5.294368 H
39 0 -1.883286 -7.176608 -5.519262 H
40 0 -8.109112 4.057150 -0.797263 O
41 0 -8.503274 3.980655 0.118634 H
42 0 -7.661862 3.196406 -1.040506 H
43 0 -7.033814 -1.264408 4.922853 O
44 0 -6.253956 -1.504181 5.501135 H
45 0 -7.668721 -2.036015 4.882900 H
46 0 -9.438250 1.200050 1.010343 O
47 0 -9.192238 0.432582 1.602424 H
48 0 -9.640445 0.860666 0.091636 H
49 0 -4.901978 3.836998 0.461463 O
50 0 -5.713384 3.741630 1.038187 H
51 0 -5.162522 4.238831 -0.416449 H
52 0 3.903583 -4.842752 -4.415946 O
53 0 3.174291 -4.322746 -4.860720 H
54 0 4.632730 -4.219334 -4.133476 H
55 0 5.554691 -1.697581 0.495624 O
56 0 5.774478 -0.881533 1.030280 H
57 0 6.233593 -2.408692 0.678680 H
58 0 -8.129007 0.718179 -4.614977 O
59 0 -8.226279 -0.078973 -5.210935 H
60 0 -8.592673 1.501869 -5.028401 H
61 0 -5.851996 0.056977 0.848186 O
62 0 -6.628015 -0.500528 1.143266 H
63 0 -5.744737 0.833831 1.468734 H
64 0 -5.013795 -3.055706 -4.566225 O
65 0 -4.044322 -3.295524 -4.618168 H
66 0 -5.556915 -3.764157 -5.017004 H
67 0 -1.363326 -1.001185 -3.816863 O
68 0 -0.382410 -1.035815 -3.625303 H
69 0 -1.633800 -1.822157 -4.319791 H
70 0 3.717232 -1.737127 -2.929905 O
71 0 4.490536 -1.379941 -3.453849 H
72 0 3.609883 -1.205310 -2.089819 H
73 0 -5.849424 1.910267 -2.110729 O
74 0 -5.322175 1.757538 -1.274804 H
75 0 -6.336534 1.071822 -2.355309 H
76 0 1.265750 -9.714946 -3.486930 O
77 0 2.092904 -10.087629 -3.907555 H
78 0 0.805472 -10.432499 -2.964185 H
79 0 0.537293 6.165967 -3.824743 O
80 0 0.108726 6.942771 -4.286245 H
81 0 1.091225 5.652977 -4.480546 H
82 0 3.457667 9.337794 -4.346696 O
83 0 3.683174 8.559642 -4.932895 H
84 0 4.227058 9.976354 -4.329995 H
85 0 7.066467 -0.456872 -3.429436 O
86 0 6.922051 0.420903 -3.886316 H
87 0 6.546586 -0.477510 -2.575399 H
88 0 -6.370126 7.453018 -5.110641 O
89 0 -6.269649 8.323562 -4.628826 H
90 0 -5.555870 7.283607 -5.665955 H
91 0 -7.174800 -8.765365 -5.761821 O
92 0 -6.514984 -9.334539 -6.252493 H
93 0 -7.706853 -9.335993 -5.136218 H
94 0 9.638396 4.597478 0.473124 O
95 0 8.650007 4.660520 0.611700 H
96 0 10.088024 4.431694 1.350869 H
97 0 8.554901 7.661802 -0.253155 O
98 0 7.816222 7.745224 -0.922083 H
99 0 9.304285 7.130755 -0.648731 H
100 0 5.847868 9.348428 -0.814983 O
101 0 5.010569 9.889890 -0.891288 H
102 0 6.641616 9.955887 -0.847089 H
103 0 2.400881 -1.677957 1.326313 O
104 0 2.051993 -2.230143 0.569036 H
105 0 2.770866 -0.819843 0.970159 H
106 0 -5.450853 -10.230322 0.343163 O
107 0 -5.244313 10.006416 0.075927 H
108 0 -6.431032 -10.061749 0.239421 H
109 0 8.723662 -10.169863 -2.619372 O
110 0 8.241882 -9.774445 -3.401424 H
111 0 9.289828 -9.467936 -2.187140 H
112 0 0.786949 -8.106346 -0.061219 O
113 0 -0.124505 -8.451980 0.162110 H
114 0 0.738853 -7.552578 -0.892552 H
115 0 8.109193 -7.703903 2.426902 O
116 0 8.520107 -8.604309 2.283761 H
117 0 7.113034 -7.781972 2.386386 H
118 0 2.377730 -0.955304 5.261315 O
119 0 2.163204 -0.086870 5.708396 H
120 0 2.400689 -1.685125 5.944626 H
121 0 6.269045 -3.802655 -2.710424 O
122 0 5.745529 -3.383073 -1.968826 H
123 0 7.246611 -3.679217 -2.539507 H
124 0 5.452904 -9.718019 -3.958180 O
125 0 4.693092 -9.691266 -3.308587 H
126 0 6.175486 -9.098431 -3.651447 H
127 0 7.131699 -7.049036 -3.138161 O
128 0 6.506311 -6.268888 -3.156719 H
129 0 8.012472 -6.779377 -3.527531 H
130 0 -4.870150 -7.243289 -3.632814 O
131 0 -4.745699 -8.232048 -3.716176 H
132 0 -5.729060 -6.977462 -4.070634 H
133 0 -3.569492 5.994881 -5.788500 O
134 0 -3.552289 6.242496 -6.757255 H
135 0 -3.010092 5.178763 -5.643200 H
136 0 -5.889386 9.500687 -2.721808 O
137 0 -5.335190 10.219493 -2.302158 H
138 0 -6.169805 8.844250 -2.021537 H
139 0 3.566754 -9.481928 -1.311538 O
140 0 2.804811 -8.999378 -1.743582 H
141 0 4.175043 -8.819918 -0.873593 H
142 0 -7.202418 7.277293 -1.163784 O
143 0 -6.606243 6.522932 -1.438713 H
144 0 -8.142819 7.075704 -1.437787 H
145 0 9.585333 -3.929677 5.916718 O
146 0 10.562448 -4.100585 5.790070 H
147 0 9.404215 -2.950195 5.828326 H
148 0 10.234789 -9.507660 4.217148 O
149 0 10.007449 -8.550228 4.395303 H
150 0 -9.963083 -9.649017 4.357110 H
151 0 -4.778459 -4.142603 -1.040141 O
152 0 -5.457865 -4.633385 -0.494589 H
153 0 -5.049012 -4.159129 -2.002749 H
154 0 -1.982446 -4.749485 -1.664153 O
155 0 -1.252126 -4.603663 -0.996739 H
156 0 -2.844712 -4.401689 -1.295902 H
157 0 -0.161353 0.435481 -1.124045 O
158 0 -0.816103 1.116058 -0.795124 H
159 0 0.693700 0.521249 -0.612579 H
160 0 -0.032631 8.654546 1.831854 O
161 0 -0.979131 8.862115 2.079090 H
162 0 0.017334 7.731569 1.450164 H
163 0 -9.177008 -5.376509 0.133066 O
164 0 -8.431103 -6.008073 0.344813 H
165 0 -9.334242 -5.365681 -0.854477 H
166 0 -9.671850 -4.881467 -3.301087 O
167 0 -9.996094 -3.953940 -3.487206 H
168 0 -10.426478 -5.527566 -3.415853 H
169 0 -3.820750 5.637109 3.351962 O
170 0 -2.931106 5.728885 3.799406 H
171 0 -3.694648 5.619921 2.360047 H
172 0 -3.799158 0.563055 -5.263962 O
173 0 -3.548494 0.242716 -6.177548 H
174 0 -3.294298 0.039929 -4.577271 H
175 0 8.643639 -4.677304 -4.803215 O
176 0 7.646757 -4.745865 -4.763208 H
177 0 8.910475 -4.177550 -5.627301 H
178 0 -6.982153 -5.386262 -5.060765 O
179 0 -7.535641 -6.105887 -5.480126 H
180 0 -7.557188 -4.831186 -4.459687 H
181 0 -7.637117 -9.519329 2.358597 O
182 0 -8.017162 -8.689446 1.950024 H
183 0 -7.868456 -10.307582 1.788327 H
184 0 -0.886357 5.211352 1.755363 O
185 0 -0.365572 4.998646 2.582175 H
186 0 -0.812298 4.450968 1.110064 H
187 0 6.407435 4.948254 -1.899389 O
188 0 6.815605 5.601679 -2.536987 H
189 0 5.519138 5.291305 -1.593873 H
190 0 -1.349642 9.632431 -1.005141 O
191 0 -0.408451 9.330553 -1.156895 H
192 0 -1.444625 9.969083 -0.068262 H
193 0 3.494746 0.583681 -0.695548 O
194 0 4.389579 0.969725 -0.919898 H
195 0 2.968967 1.248014 -0.164227 H
196 0 3.599506 -4.080491 -0.344073 O
197 0 4.358650 -3.515321 -0.020995 H
198 0 3.531356 -4.902110 0.221955 H
199 0 3.546242 3.575749 -3.205298 O
200 0 3.312439 2.741290 -3.704391 H
201 0 2.981148 3.641510 -2.382848 H
202 0 -9.536424 -1.742023 -3.249121 O
203 0 -9.792664 -0.866631 -3.659139 H
204 0 -8.826817 -1.592446 -2.560524 H
205 0 -0.956546 9.523550 -4.436056 O
206 0 -1.734025 9.669407 -5.047876 H
207 0 -0.150796 9.987088 -4.804795 H
208 0 3.196092 4.131822 -0.201655 O
209 0 3.826609 4.770901 -0.642223 H
210 0 3.043616 4.413835 0.745599 H
211 0 10.342230 -7.864979 -3.788958 O
212 0 9.952975 -7.643676 -4.683150 H
213 0 -10.114960 -8.549373 -3.899418 H
214 0 6.154941 2.438183 -4.545759 O
215 0 5.403875 2.992929 -4.187644 H
216 0 7.023115 2.906181 -4.380415 H
217 0 4.697298 2.819374 5.517040 O
218 0 4.150000 2.256113 6.136144 H
219 0 4.185363 3.644107 5.276583 H
220 0 0.486381 -4.485858 0.406730 O
221 0 0.263659 -5.157093 1.113778 H
222 0 0.293733 -3.565858 0.748139 H
223 0 -3.542327 -9.710617 -2.240852 O
224 0 -2.951663 -10.384116 -1.796341 H
225 0 -3.088051 -8.819722 -2.244331 H
226 0 4.077070 6.136511 -4.669676 O
227 0 4.452325 5.713237 -5.494362 H
228 0 3.926859 5.434384 -3.973589 H
229 0 0.684430 1.574871 1.502589 O
230 0 0.987036 0.822349 2.087602 H
231 0 -0.305919 1.520145 1.374880 H
232 0 -5.490726 -7.525070 2.901750 O
233 0 -4.789776 -7.649928 3.604007 H
234 0 -5.689671 -8.404620 2.469436 H
235 0 5.600031 -9.892485 2.011739 O
236 0 4.745568 -10.336447 1.741936 H
237 0 5.904650 -9.283318 1.279535 H
238 0 -3.046306 -8.225987 4.751248 O
239 0 -2.262341 -7.699976 5.081071 H
240 0 -2.899375 -9.196960 4.940178 H
241 0 10.072302 -5.242301 2.475654 O
242 0 -10.529868 -5.269292 1.658434 H
243 0 9.509538 -6.068069 2.514195 H
244 0 1.532561 8.936764 -1.779631 O
245 0 2.100296 9.724903 -1.541706 H
246 0 2.023306 8.356775 -2.429918 H
247 0 -9.415256 9.454594 0.068464 O
248 0 -9.958510 9.991233 -0.577286 H
249 0 -9.905572 8.613835 0.298269 H
250 0 9.863304 -8.426830 -0.148622 O
251 0 9.480933 -9.285480 0.192721 H
252 0 9.247454 -7.673214 0.081144 H
253 0 -4.029082 0.047135 3.796433 O
254 0 -3.125980 -0.295955 4.054838 H
255 0 -4.325622 -0.398406 2.951666 H
256 0 3.225395 -8.815744 3.769317 O
257 0 4.078486 -9.276378 3.524262 H
258 0 3.431893 -7.985154 4.286598 H
259 0 6.234158 1.844169 -0.844826 O
260 0 6.336895 2.061318 0.125929 H
261 0 6.593157 2.598313 -1.394791 H
262 0 -0.751067 -1.004996 4.318505 O
263 0 -0.750937 -1.798050 4.927715 H
264 0 0.150695 -0.908337 3.897136 H
265 0 -0.956056 -1.634543 0.944273 O
266 0 -1.110455 -1.130652 1.794175 H
267 0 -0.992814 -1.002058 0.170523 H
268 0 -2.984078 2.318493 -2.243347 O
269 0 -2.744350 3.277571 -2.092675 H
270 0 -3.876562 2.264538 -2.691189 H
271 0 8.970184 -2.948161 -1.862576 O
272 0 9.636137 -2.460115 -1.298314 H
273 0 9.033100 -2.625044 -2.806879 H
274 0 -10.217729 2.910087 -5.719787 O
275 0 -9.686944 3.666627 -5.337688 H
276 0 10.581757 3.182027 -6.604606 H
277 0 -3.267917 -0.838834 -1.371459 O
278 0 -3.556509 -0.367754 -2.205052 H
279 0 -2.573779 -1.522108 -1.598149 H
280 0 -2.677878 1.822080 0.792037 O
281 0 -3.333638 1.137294 0.474001 H
282 0 -3.128886 2.712622 0.852208 H
283 0 -2.187705 3.147728 -5.573408 O
284 0 -3.011801 2.715833 -5.206772 H
285 0 -1.379464 2.673472 -5.224244 H
286 0 4.384668 -6.272513 4.421029 O
287 0 3.932586 -5.382663 4.483254 H
288 0 5.360611 -6.164427 4.610585 H
289 0 -8.556798 5.422746 -4.391630 O
290 0 -8.030315 4.614334 -4.654858 H
291 0 -8.043930 6.247010 -4.631536 H
292 0 -4.950368 5.127159 -2.459298 O
293 0 -4.043152 5.497002 -2.258662 H
294 0 -5.210125 5.370337 -3.393894 H
295 0 -6.494659 3.187478 -4.775737 O
296 0 -6.239568 3.305377 -3.815996 H
297 0 -6.592795 2.212862 -4.977144 H
298 0 -2.519575 -10.447526 1.591165 O
299 0 -2.790211 10.554165 2.537616 H
300 0 -3.286651 10.528543 0.982137 H
301 0 -6.828688 3.474331 2.785686 O
302 0 -6.934014 2.751774 3.468929 H
303 0 -6.714436 4.354475 3.246439 H
304 0 9.740902 0.821208 -4.066283 O
305 0 8.854930 0.420766 -4.300101 H
306 0 9.887029 1.647850 -4.609708 H
307 0 0.128716 2.103205 -3.787864 O
308 0 -0.410727 1.477199 -3.224729 H
309 0 0.608138 2.752959 -3.197970 H
310 0 -7.203206 8.248591 1.982090 O
311 0 -8.197002 8.317290 1.894064 H
312 0 -6.800204 8.076277 1.083205 H
313 0 6.000844 -2.423451 3.568231 O
314 0 6.884936 -2.850091 3.759113 H
315 0 6.108723 -1.743233 2.843153 H
316 0 3.643060 4.537122 2.910032 O
317 0 4.204671 3.718083 2.792361 H
318 0 4.185706 5.347723 2.689716 H
319 0 0.404361 -6.851763 5.267396 O
320 0 0.157018 -7.570478 4.617498 H
321 0 1.393160 -6.863274 5.416523 H
322 0 -4.906031 10.089545 3.471067 O
323 0 -5.074042 9.104146 3.442154 H
324 0 -5.620047 10.564554 2.956655 H
325 0 3.135550 -6.702485 1.256539 O
326 0 3.010699 -7.018951 2.196942 H
327 0 2.367392 -7.012095 0.696031 H
328 0 -2.283649 6.222920 -1.715726 O
329 0 -1.418629 6.113596 -1.225953 H
330 0 -2.227591 7.019892 -2.317205 H
331 0 -1.452179 -7.637890 -2.218627 O
332 0 -0.894258 -7.575762 -3.046245 H
333 0 -1.547557 -6.729207 -1.812078 H
334 0 -6.510974 -4.838735 1.849947 O
335 0 -6.110144 -5.703428 2.152812 H
336 0 -6.015957 -4.077280 2.268548 H
337 0 7.611564 6.352306 2.237763 O
338 0 7.898066 6.827802 3.069522 H
339 0 7.692797 6.970397 1.455865 H
340 0 8.246898 7.293959 -3.453387 O
341 0 8.477272 8.032068 -4.087582 H
342 0 9.087627 6.877438 -3.107316 H
343 0 0.189858 -3.512083 5.817200 O
344 0 0.054839 -4.290026 6.430927 H
345 0 1.016444 -3.656418 5.273136 H
346 0 8.359150 -5.677442 -0.312659 O
347 0 8.071214 -4.863361 0.191755 H
348 0 8.432623 -5.457992 -1.285547 H
349 0 9.163858 1.720255 2.812627 O
350 0 8.620902 2.532412 3.026341 H
351 0 9.953179 1.983595 2.257925 H
352 0 -8.517262 -4.475632 4.750411 O
353 0 -8.287522 -4.637794 3.790726 H
354 0 -8.860555 -5.321649 5.158425 H
355 0 10.524480 3.322858 -2.644675 O
356 0 -10.304703 2.519167 -3.126811 H
357 0 10.323848 3.080867 -1.695366 H
358 0 -4.320208 -2.404421 1.514200 O
359 0 -3.704552 -3.074981 1.928048 H
360 0 -4.375830 -2.566328 0.528962 H
361 0 6.599815 0.185062 2.415118 O
362 0 5.863988 0.817521 2.657101 H
363 0 7.461589 0.687545 2.345427 H
364 0 8.410497 -2.741321 1.384738 O
365 0 9.036826 -2.960757 2.132833 H